
                                 *****************
                                 * O   R   C   A *
                                 *****************

                                            #,                                       
                                            ###                                      
                                            ####                                     
                                            #####                                    
                                            ######                                   
                                           ########,                                 
                                     ,,################,,,,,                         
                               ,,#################################,,                 
                          ,,##########################################,,             
                       ,#########################################, ''#####,          
                    ,#############################################,,   '####,        
                  ,##################################################,,,,####,       
                ,###########''''           ''''###############################       
              ,#####''   ,,,,##########,,,,          '''####'''          '####       
            ,##' ,,,,###########################,,,                        '##       
           ' ,,###''''                  '''############,,,                           
         ,,##''                                '''############,,,,        ,,,,,,###''
      ,#''                                            '''#######################'''  
     '                                                          ''''####''''         
             ,#######,   #######,   ,#######,      ##                                
            ,#'     '#,  ##    ##  ,#'     '#,    #''#        ######   ,####,        
            ##       ##  ##   ,#'  ##            #'  '#       #        #'  '#        
            ##       ##  #######   ##           ,######,      #####,   #    #        
            '#,     ,#'  ##    ##  '#,     ,#' ,#      #,         ##   #,  ,#        
             '#######'   ##     ##  '#######'  #'      '#     #####' # '####'        



                  #######################################################
                  #                        -***-                        #
                  #          Department of theory and spectroscopy      #
                  #    Directorship and core code : Frank Neese         #
                  #        Max Planck Institute fuer Kohlenforschung    #
                  #                Kaiser Wilhelm Platz 1               #
                  #                 D-45470 Muelheim/Ruhr               #
                  #                      Germany                        #
                  #                                                     #
                  #                  All rights reserved                #
                  #                        -***-                        #
                  #######################################################


                         Program Version 5.0.2 -  RELEASE  -


 With contributions from (in alphabetic order):
   Daniel Aravena         : Magnetic Suceptibility
   Michael Atanasov       : Ab Initio Ligand Field Theory (pilot matlab implementation)
   Alexander A. Auer      : GIAO ZORA, VPT2 properties, NMR spectrum
   Ute Becker             : Parallelization
   Giovanni Bistoni       : ED, misc. LED, open-shell LED, HFLD
   Martin Brehm           : Molecular dynamics
   Dmytro Bykov           : SCF Hessian
   Vijay G. Chilkuri      : MRCI spin determinant printing, contributions to CSF-ICE
   Dipayan Datta          : RHF DLPNO-CCSD density
   Achintya Kumar Dutta   : EOM-CC, STEOM-CC
   Dmitry Ganyushin       : Spin-Orbit,Spin-Spin,Magnetic field MRCI
   Miquel Garcia          : C-PCM and meta-GGA Hessian, CC/C-PCM, Gaussian charge scheme
   Yang Guo               : DLPNO-NEVPT2, F12-NEVPT2, CIM, IAO-localization
   Andreas Hansen         : Spin unrestricted coupled pair/coupled cluster methods
   Benjamin Helmich-Paris : MC-RPA, TRAH-SCF, COSX integrals
   Lee Huntington         : MR-EOM, pCC
   Robert Izsak           : Overlap fitted RIJCOSX, COSX-SCS-MP3, EOM
   Marcus Kettner         : VPT2
   Christian Kollmar      : KDIIS, OOCD, Brueckner-CCSD(T), CCSD density, CASPT2, CASPT2-K
   Simone Kossmann        : Meta GGA functionals, TD-DFT gradient, OOMP2, MP2 Hessian
   Martin Krupicka        : Initial AUTO-CI
   Lucas Lang             : DCDCAS
   Marvin Lechner         : AUTO-CI (C++ implementation), FIC-MRCC
   Dagmar Lenk            : GEPOL surface, SMD
   Dimitrios Liakos       : Extrapolation schemes; Compound Job, initial MDCI parallelization
   Dimitrios Manganas     : Further ROCIS development; embedding schemes
   Dimitrios Pantazis     : SARC Basis sets
   Anastasios Papadopoulos: AUTO-CI, single reference methods and gradients
   Taras Petrenko         : DFT Hessian,TD-DFT gradient, ASA, ECA, R-Raman, ABS, FL, XAS/XES, NRVS
   Peter Pinski           : DLPNO-MP2, DLPNO-MP2 Gradient
   Christoph Reimann      : Effective Core Potentials
   Marius Retegan         : Local ZFS, SOC
   Christoph Riplinger    : Optimizer, TS searches, QM/MM, DLPNO-CCSD(T), (RO)-DLPNO pert. Triples
   Tobias Risthaus        : Range-separated hybrids, TD-DFT gradient, RPA, STAB
   Michael Roemelt        : Original ROCIS implementation
   Masaaki Saitow         : Open-shell DLPNO-CCSD energy and density
   Barbara Sandhoefer     : DKH picture change effects
   Avijit Sen             : IP-ROCIS
   Kantharuban Sivalingam : CASSCF convergence, NEVPT2, FIC-MRCI
   Bernardo de Souza      : ESD, SOC TD-DFT
   Georgi Stoychev        : AutoAux, RI-MP2 NMR, DLPNO-MP2 response
   Willem Van den Heuvel  : Paramagnetic NMR
   Boris Wezisla          : Elementary symmetry handling
   Frank Wennmohs         : Technical directorship


 We gratefully acknowledge several colleagues who have allowed us to
 interface, adapt or use parts of their codes:
   Stefan Grimme, W. Hujo, H. Kruse, P. Pracht,  : VdW corrections, initial TS optimization,
                  C. Bannwarth, S. Ehlert          DFT functionals, gCP, sTDA/sTD-DF
   Ed Valeev, F. Pavosevic, A. Kumar             : LibInt (2-el integral package), F12 methods
   Garnet Chan, S. Sharma, J. Yang, R. Olivares  : DMRG
   Ulf Ekstrom                                   : XCFun DFT Library
   Mihaly Kallay                                 : mrcc  (arbitrary order and MRCC methods)
   Jiri Pittner, Ondrej Demel                    : Mk-CCSD
   Frank Weinhold                                : gennbo (NPA and NBO analysis)
   Christopher J. Cramer and Donald G. Truhlar   : smd solvation model
   Lars Goerigk                                  : TD-DFT with DH, B97 family of functionals
   V. Asgeirsson, H. Jonsson                     : NEB implementation
   FAccTs GmbH                                   : IRC, NEB, NEB-TS, DLPNO-Multilevel, CI-OPT
                                                   MM, QMMM, 2- and 3-layer-ONIOM, Crystal-QMMM,
                                                   LR-CPCM, SF, NACMEs, symmetry and pop. for TD-DFT,
                                                   nearIR, NL-DFT gradient (VV10), updates on ESD,
                                                   ML-optimized integration grids
   S Lehtola, MJT Oliveira, MAL Marques          : LibXC Library
   Liviu Ungur et al                             : ANISO software


 Your calculation uses the libint2 library for the computation of 2-el integrals
 For citations please refer to: http://libint.valeyev.net

 Your ORCA version has been built with support for libXC version: 5.1.0
 For citations please refer to: https://tddft.org/programs/libxc/

 This ORCA versions uses:
   CBLAS   interface :  Fast vector & matrix operations
   LAPACKE interface :  Fast linear algebra routines
   SCALAPACK package :  Parallel linear algebra routines
   Shared memory     :  Shared parallel matrices
   BLAS/LAPACK       :  OpenBLAS 0.3.15  USE64BITINT DYNAMIC_ARCH NO_AFFINITY Zen SINGLE_THREADED
        Core in use  :  Zen
   Copyright (c) 2011-2014, The OpenBLAS Project


================================================================================

----- Orbital basis set information -----
Your calculation utilizes the basis: def2-SVP
   F. Weigend and R. Ahlrichs, Phys. Chem. Chem. Phys. 7, 3297 (2005).

----- AuxJ basis set information -----
Your calculation utilizes the auxiliary basis: def2/J
   F. Weigend, Phys. Chem. Chem. Phys. 8, 1057 (2006).

----- AuxC basis set information -----
Your calculation utilizes the auxiliary basis: def2-SVP/C
  H-La, Hf-Rn : A. Hellweg, C. Hattig, S. Hofener and W. Klopper, Theor. Chem. Acc. 117, 587 (2007).
        Ce-Lu : J. Chmela and M. E. Harding, Mol. Phys. (2018).

================================================================================
                                        WARNINGS
                       Please study these warnings very carefully!
================================================================================

INFO   : Checking CIS options ...

WARNING: CIS/ROCIS methods need fully converged wavefunctions
  ===> : Setting SCFConvForced true
         You can overwrite this default with %scf ConvForced false 


INFO   : the flag for use of the SHARK integral package has been found!

================================================================================
                                       INPUT FILE
================================================================================
NAME = Abs_DFT_naphtalene_noesd.inp
|  1> !B3LYP DEF2-SVP DEF2-SVP/C def2/J RIJCOSX TIGHTSCF CPCM(Toluene) RI-SOMF(1X)
|  2> 
|  3> %TDDFT
|  4>   	NROOTS   15
|  5>   	DONTO    TRUE
|  6> END
|  7> 
|  8> %maxcore  16000
|  9> %PAL 
| 10>    NPROCS 12
| 11> END
| 12> 
| 13> * xyz 0 1
| 14>   C   -8.96121784812031      0.24268337776474      0.00033489819780
| 15>   C   -7.59059951968750      0.24371545417717      0.00015198745293
| 16>   C   -6.86693343298993      1.46030211281662      0.00023475747764
| 17>   C   -7.58799559947894      2.69205204792658      0.00050997612007
| 18>   C   -9.00310055342497      2.65617792309838      0.00069280404132
| 19>   C   -9.67467975506609      1.46137108557408      0.00060814266859
| 20>   H   -4.90710891896316      0.55933209328366     -0.00016767341217
| 21>   H   -9.50425962457938     -0.69409088109167      0.00026687164944
| 22>   H   -7.04027568972576     -0.68980140749936     -0.00005544925225
| 23>   C   -5.45183741157070      1.49616229462644      0.00005614405431
| 24>   C   -6.86437066397562      3.90865807672096      0.00059715121121
| 25>   H   -9.54784882567221      3.59299899012176      0.00091076313657
| 26>   H   -10.75737868171900      1.44626581403603      0.00074783188745
| 27>   C   -5.49375285629476      3.90967522182525      0.00042517705822
| 28>   C   -4.78028626336214      2.69100004727155      0.00015218718405
| 29>   H   -7.41470937199301      4.84216327382740      0.00079951152285
| 30>   H   -4.95071130646203      4.84645090655905      0.00050815101568
| 31>   H   -3.69758703691443      2.70613312896136      0.00001676798628
| 32> *
| 33> 
| 34> 
| 35>                          ****END OF INPUT****
================================================================================

                       ****************************
                       * Single Point Calculation *
                       ****************************

---------------------------------
CARTESIAN COORDINATES (ANGSTROEM)
---------------------------------
  C     -8.961218    0.242683    0.000335
  C     -7.590600    0.243715    0.000152
  C     -6.866933    1.460302    0.000235
  C     -7.587996    2.692052    0.000510
  C     -9.003101    2.656178    0.000693
  C     -9.674680    1.461371    0.000608
  H     -4.907109    0.559332   -0.000168
  H     -9.504260   -0.694091    0.000267
  H     -7.040276   -0.689801   -0.000055
  C     -5.451837    1.496162    0.000056
  C     -6.864371    3.908658    0.000597
  H     -9.547849    3.592999    0.000911
  H    -10.757379    1.446266    0.000748
  C     -5.493753    3.909675    0.000425
  C     -4.780286    2.691000    0.000152
  H     -7.414709    4.842163    0.000800
  H     -4.950711    4.846451    0.000508
  H     -3.697587    2.706133    0.000017

----------------------------
CARTESIAN COORDINATES (A.U.)
----------------------------
  NO LB      ZA    FRAG     MASS         X           Y           Z
   0 C     6.0000    0    12.011  -16.934248    0.458605    0.000633
   1 C     6.0000    0    12.011  -14.344154    0.460555    0.000287
   2 C     6.0000    0    12.011  -12.976624    2.759571    0.000444
   3 C     6.0000    0    12.011  -14.339234    5.087241    0.000964
   4 C     6.0000    0    12.011  -17.013394    5.019449    0.001309
   5 C     6.0000    0    12.011  -18.282495    2.761591    0.001149
   6 H     1.0000    0     1.008   -9.273092    1.056984   -0.000317
   7 H     1.0000    0     1.008  -17.960448   -1.311642    0.000504
   8 H     1.0000    0     1.008  -13.304193   -1.303536   -0.000105
   9 C     6.0000    0    12.011  -10.302480    2.827337    0.000106
  10 C     6.0000    0    12.011  -12.971781    7.386293    0.001128
  11 H     1.0000    0     1.008  -18.042819    6.789784    0.001721
  12 H     1.0000    0     1.008  -20.328500    2.733046    0.001413
  13 C     6.0000    0    12.011  -10.381688    7.388215    0.000803
  14 C     6.0000    0    12.011   -9.033432    5.085253    0.000288
  15 H     1.0000    0     1.008  -14.011770    9.150362    0.001511
  16 H     1.0000    0     1.008   -9.355489    9.158465    0.000960
  17 H     1.0000    0     1.008   -6.987427    5.113850    0.000032

--------------------------------
INTERNAL COORDINATES (ANGSTROEM)
--------------------------------
 C      0   0   0     0.000000000000     0.00000000     0.00000000
 C      1   0   0     1.370618729215     0.00000000     0.00000000
 C      2   1   0     1.415547847961   120.78872804     0.00000000
 C      3   2   1     1.427283653073   118.90985599     0.00000000
 C      4   3   2     1.415559612641   118.89237357     0.00000000
 C      5   4   3     1.370613734879   120.79173451     0.00000000
 H      3   2   1     2.157002379189    96.05640884   180.00020823
 H      1   2   3     1.082792864616   120.14372570   179.99985320
 H      2   1   3     1.083655891826   120.47691903   179.99977039
 C      7   3   2     1.083688150208    35.13457172   180.00086861
 C      4   3   2     1.415543458952   118.91168837   179.99979670
 H      5   4   3     1.083690195232   118.72521347   179.99944983
 H      6   5   4     1.082804301117   120.13885846   180.00012170
 C     11   4   3     1.370618195885   120.78627157     0.00000000
 C     10   7   3     1.370626940137   120.48585441   180.00054876
 H     11   4   3     1.083653398240   118.73519446   179.99959498
 H     14  11   4     1.082793985594   120.14305325   180.00086116
 H     15  10   7     1.082804988652   120.13867409     0.00000000

---------------------------
INTERNAL COORDINATES (A.U.)
---------------------------
 C      0   0   0     0.000000000000     0.00000000     0.00000000
 C      1   0   0     2.590094032239     0.00000000     0.00000000
 C      2   1   0     2.674997762108   120.78872804     0.00000000
 C      3   2   1     2.697175219731   118.90985599     0.00000000
 C      4   3   2     2.675019994131   118.89237357     0.00000000
 C      5   4   3     2.590084594312   120.79173451     0.00000000
 H      3   2   1     4.076143766884    96.05640884   180.00020823
 H      1   2   3     2.046181973888   120.14372570   179.99985320
 H      2   1   3     2.047812858960   120.47691903   179.99977039
 C      7   3   2     2.047873818468    35.13457172   180.00086861
 C      4   3   2     2.674989468082   118.91168837   179.99979670
 H      5   4   3     2.047877683004   118.72521347   179.99944983
 H      6   5   4     2.046203585742   120.13885846   180.00012170
 C     11   4   3     2.590093024392   120.78627157     0.00000000
 C     10   7   3     2.590109548634   120.48585441   180.00054876
 H     11   4   3     2.047808146766   118.73519446   179.99959498
 H     14  11   4     2.046184092229   120.14305325   180.00086116
 H     15  10   7     2.046204884997   120.13867409     0.00000000

---------------------
BASIS SET INFORMATION
---------------------
There are 2 groups of distinct atoms

 Group   1 Type C   : 7s4p1d contracted to 3s2p1d pattern {511/31/1}
 Group   2 Type H   : 4s1p contracted to 2s1p pattern {31/1}

Atom   0C    basis set group =>   1
Atom   1C    basis set group =>   1
Atom   2C    basis set group =>   1
Atom   3C    basis set group =>   1
Atom   4C    basis set group =>   1
Atom   5C    basis set group =>   1
Atom   6H    basis set group =>   2
Atom   7H    basis set group =>   2
Atom   8H    basis set group =>   2
Atom   9C    basis set group =>   1
Atom  10C    basis set group =>   1
Atom  11H    basis set group =>   2
Atom  12H    basis set group =>   2
Atom  13C    basis set group =>   1
Atom  14C    basis set group =>   1
Atom  15H    basis set group =>   2
Atom  16H    basis set group =>   2
Atom  17H    basis set group =>   2
---------------------------------
AUXILIARY/J BASIS SET INFORMATION
---------------------------------
There are 2 groups of distinct atoms

 Group   1 Type C   : 12s5p4d2f1g contracted to 6s4p3d1f1g pattern {711111/2111/211/2/1}
 Group   2 Type H   : 5s2p1d contracted to 3s1p1d pattern {311/2/1}

Atom   0C    basis set group =>   1
Atom   1C    basis set group =>   1
Atom   2C    basis set group =>   1
Atom   3C    basis set group =>   1
Atom   4C    basis set group =>   1
Atom   5C    basis set group =>   1
Atom   6H    basis set group =>   2
Atom   7H    basis set group =>   2
Atom   8H    basis set group =>   2
Atom   9C    basis set group =>   1
Atom  10C    basis set group =>   1
Atom  11H    basis set group =>   2
Atom  12H    basis set group =>   2
Atom  13C    basis set group =>   1
Atom  14C    basis set group =>   1
Atom  15H    basis set group =>   2
Atom  16H    basis set group =>   2
Atom  17H    basis set group =>   2
---------------------------------
AUXILIARY/C BASIS SET INFORMATION
---------------------------------
There are 2 groups of distinct atoms

 Group   1 Type C   : 8s6p5d3f contracted to 6s5p4d1f pattern {311111/21111/2111/3}
 Group   2 Type H   : 4s3p2d contracted to 3s2p1d pattern {211/21/2}

Atom   0C    basis set group =>   1
Atom   1C    basis set group =>   1
Atom   2C    basis set group =>   1
Atom   3C    basis set group =>   1
Atom   4C    basis set group =>   1
Atom   5C    basis set group =>   1
Atom   6H    basis set group =>   2
Atom   7H    basis set group =>   2
Atom   8H    basis set group =>   2
Atom   9C    basis set group =>   1
Atom  10C    basis set group =>   1
Atom  11H    basis set group =>   2
Atom  12H    basis set group =>   2
Atom  13C    basis set group =>   1
Atom  14C    basis set group =>   1
Atom  15H    basis set group =>   2
Atom  16H    basis set group =>   2
Atom  17H    basis set group =>   2
[1660101129.430299] [c301-015:4019300:0]        rc_iface.c:506  UCX  WARN  using maximal value for RETRY_COUNT (7) instead of 40
[1660101129.430393] [c301-015:4019304:0]        rc_iface.c:506  UCX  WARN  using maximal value for RETRY_COUNT (7) instead of 40
[1660101129.430551] [c301-015:4019310:0]        rc_iface.c:506  UCX  WARN  using maximal value for RETRY_COUNT (7) instead of 40
[1660101129.430739] [c301-015:4019308:0]        rc_iface.c:506  UCX  WARN  using maximal value for RETRY_COUNT (7) instead of 40
[1660101129.433324] [c301-015:4019300:0]        rc_iface.c:506  UCX  WARN  using maximal value for RETRY_COUNT (7) instead of 40
[1660101129.433495] [c301-015:4019304:0]        rc_iface.c:506  UCX  WARN  using maximal value for RETRY_COUNT (7) instead of 40
[1660101129.433499] [c301-015:4019308:0]        rc_iface.c:506  UCX  WARN  using maximal value for RETRY_COUNT (7) instead of 40
[1660101129.433974] [c301-015:4019310:0]        rc_iface.c:506  UCX  WARN  using maximal value for RETRY_COUNT (7) instead of 40
[1660101129.435643] [c301-015:4019302:0]        rc_iface.c:506  UCX  WARN  using maximal value for RETRY_COUNT (7) instead of 40
[1660101129.438438] [c301-015:4019302:0]        rc_iface.c:506  UCX  WARN  using maximal value for RETRY_COUNT (7) instead of 40
[1660101129.442425] [c301-015:4019306:0]        rc_iface.c:506  UCX  WARN  using maximal value for RETRY_COUNT (7) instead of 40
[1660101129.445330] [c301-015:4019306:0]        rc_iface.c:506  UCX  WARN  using maximal value for RETRY_COUNT (7) instead of 40
[1660101129.455165] [c301-015:4019303:0]        rc_iface.c:506  UCX  WARN  using maximal value for RETRY_COUNT (7) instead of 40
[1660101129.455391] [c301-015:4019307:0]        rc_iface.c:506  UCX  WARN  using maximal value for RETRY_COUNT (7) instead of 40
[1660101129.455953] [c301-015:4019299:0]        rc_iface.c:506  UCX  WARN  using maximal value for RETRY_COUNT (7) instead of 40
[1660101129.455956] [c301-015:4019305:0]        rc_iface.c:506  UCX  WARN  using maximal value for RETRY_COUNT (7) instead of 40
[1660101129.458680] [c301-015:4019301:0]        rc_iface.c:506  UCX  WARN  using maximal value for RETRY_COUNT (7) instead of 40
[1660101129.459097] [c301-015:4019303:0]        rc_iface.c:506  UCX  WARN  using maximal value for RETRY_COUNT (7) instead of 40
[1660101129.459223] [c301-015:4019307:0]        rc_iface.c:506  UCX  WARN  using maximal value for RETRY_COUNT (7) instead of 40
[1660101129.459426] [c301-015:4019309:0]        rc_iface.c:506  UCX  WARN  using maximal value for RETRY_COUNT (7) instead of 40
[1660101129.459509] [c301-015:4019305:0]        rc_iface.c:506  UCX  WARN  using maximal value for RETRY_COUNT (7) instead of 40
[1660101129.459674] [c301-015:4019299:0]        rc_iface.c:506  UCX  WARN  using maximal value for RETRY_COUNT (7) instead of 40
[1660101129.462001] [c301-015:4019301:0]        rc_iface.c:506  UCX  WARN  using maximal value for RETRY_COUNT (7) instead of 40
[1660101129.462133] [c301-015:4019309:0]        rc_iface.c:506  UCX  WARN  using maximal value for RETRY_COUNT (7) instead of 40


           ************************************************************
           *        Program running with 12 parallel MPI-processes    *
           *              working on a common directory               *
           ************************************************************
------------------------------------------------------------------------------
                           ORCA GTO INTEGRAL CALCULATION
                           -- RI-GTO INTEGRALS CHOSEN --
------------------------------------------------------------------------------
------------------------------------------------------------------------------
                   ___                                                        
                  /   \      - P O W E R E D   B Y -                         
                 /     \                                                     
                 |  |  |   _    _      __       _____    __    __             
                 |  |  |  | |  | |    /  \     |  _  \  |  |  /  |          
                  \  \/   | |  | |   /    \    | | | |  |  | /  /          
                 / \  \   | |__| |  /  /\  \   | |_| |  |  |/  /          
                |  |  |   |  __  | /  /__\  \  |    /   |      \           
                |  |  |   | |  | | |   __   |  |    \   |  |\   \          
                \     /   | |  | | |  |  |  |  | |\  \  |  | \   \       
                 \___/    |_|  |_| |__|  |__|  |_| \__\ |__|  \__/        
                                                                              
                      - O R C A' S   B I G   F R I E N D -                    
                                      &                                       
                       - I N T E G R A L  F E E D E R -                       
                                                                              
 v1 FN, 2020, v2 2021                                                         
------------------------------------------------------------------------------


Reading SHARK input file Abs_DFT_naphtalene_noesd.SHARKINP.tmp ... ok
----------------------
SHARK INTEGRAL PACKAGE
----------------------

Number of atoms                             ...     18
Number of basis functions                   ...    180
Number of shells                            ...     84
Maximum angular momentum                    ...      2
Integral batch strategy                     ... SHARK/LIBINT Hybrid
RI-J (if used) integral strategy            ... SPLIT-RIJ (Revised 2003 algorithm where possible)
Printlevel                                  ...      1
Contraction scheme used                     ... SEGMENTED contraction
Coulomb Range Separation                    ... NOT USED
Exchange Range Separation                   ... NOT USED
Finite Nucleus Model                        ... NOT USED
Auxiliary Coulomb fitting basis             ... AVAILABLE
   # of basis functions in Aux-J            ...    578
   # of shells in Aux-J                     ...    190
   Maximum angular momentum in Aux-J        ...      4
Auxiliary J/K fitting basis                 ... NOT available
Auxiliary Correlation fitting basis         ... AVAILABLE
   # of basis functions in Aux-C            ...    592
   # of shells in Aux-C                     ...    208
   Maximum angular momentum in Aux-C        ...      3
Auxiliary 'external' fitting basis          ... NOT available
Integral threshold                          ...     2.500000e-11
Primitive cut-off                           ...     2.500000e-12
Primitive pair pre-selection threshold      ...     2.500000e-12

Calculating pre-screening integrals         ... done (  0.0 sec) Dimension = 84
Organizing shell pair data                  ... done (  0.0 sec)
Shell pair information
Total number of shell pairs                 ...      3570
Shell pairs after pre-screening             ...      3320
Total number of primitive shell pairs       ...     13034
Primitive shell pairs kept                  ...      8781
          la=0 lb=0:   1003 shell pairs
          la=1 lb=0:   1200 shell pairs
          la=1 lb=1:    378 shell pairs
          la=2 lb=0:    424 shell pairs
          la=2 lb=1:    264 shell pairs
          la=2 lb=2:     51 shell pairs

Calculating one electron integrals          ... done (  0.0 sec)
Calculating RI/J V-Matrix + Cholesky decomp.... done (  0.3 sec)
Calculating RI/C V-Matrix + Cholesky decomp.... done (  0.6 sec)
Calculating Nuclear repulsion               ... done (  0.0 sec) ENN=    459.060186556575 Eh

SHARK setup successfully completed in   2.0 seconds

Maximum memory used throughout the entire GTOINT-calculation: 12.2 MB
[1660101132.716522] [c301-015:4019370:0]        rc_iface.c:506  UCX  WARN  using maximal value for RETRY_COUNT (7) instead of 40
[1660101132.718510] [c301-015:4019364:0]        rc_iface.c:506  UCX  WARN  using maximal value for RETRY_COUNT (7) instead of 40
[1660101132.719301] [c301-015:4019370:0]        rc_iface.c:506  UCX  WARN  using maximal value for RETRY_COUNT (7) instead of 40
[1660101132.720927] [c301-015:4019364:0]        rc_iface.c:506  UCX  WARN  using maximal value for RETRY_COUNT (7) instead of 40
[1660101132.726299] [c301-015:4019368:0]        rc_iface.c:506  UCX  WARN  using maximal value for RETRY_COUNT (7) instead of 40
[1660101132.728950] [c301-015:4019368:0]        rc_iface.c:506  UCX  WARN  using maximal value for RETRY_COUNT (7) instead of 40
[1660101132.731529] [c301-015:4019373:0]        rc_iface.c:506  UCX  WARN  using maximal value for RETRY_COUNT (7) instead of 40
[1660101132.734078] [c301-015:4019373:0]        rc_iface.c:506  UCX  WARN  using maximal value for RETRY_COUNT (7) instead of 40
[1660101132.743924] [c301-015:4019378:0]        rc_iface.c:506  UCX  WARN  using maximal value for RETRY_COUNT (7) instead of 40
[1660101132.746850] [c301-015:4019378:0]        rc_iface.c:506  UCX  WARN  using maximal value for RETRY_COUNT (7) instead of 40
[1660101132.767496] [c301-015:4019366:0]        rc_iface.c:506  UCX  WARN  using maximal value for RETRY_COUNT (7) instead of 40
[1660101132.769882] [c301-015:4019366:0]        rc_iface.c:506  UCX  WARN  using maximal value for RETRY_COUNT (7) instead of 40
[1660101132.773712] [c301-015:4019369:0]        rc_iface.c:506  UCX  WARN  using maximal value for RETRY_COUNT (7) instead of 40
[1660101132.773708] [c301-015:4019365:0]        rc_iface.c:506  UCX  WARN  using maximal value for RETRY_COUNT (7) instead of 40
[1660101132.774744] [c301-015:4019377:0]        rc_iface.c:506  UCX  WARN  using maximal value for RETRY_COUNT (7) instead of 40
[1660101132.776666] [c301-015:4019367:0]        rc_iface.c:506  UCX  WARN  using maximal value for RETRY_COUNT (7) instead of 40
[1660101132.777001] [c301-015:4019369:0]        rc_iface.c:506  UCX  WARN  using maximal value for RETRY_COUNT (7) instead of 40
[1660101132.777131] [c301-015:4019365:0]        rc_iface.c:506  UCX  WARN  using maximal value for RETRY_COUNT (7) instead of 40
[1660101132.777849] [c301-015:4019377:0]        rc_iface.c:506  UCX  WARN  using maximal value for RETRY_COUNT (7) instead of 40
[1660101132.778482] [c301-015:4019371:0]        rc_iface.c:506  UCX  WARN  using maximal value for RETRY_COUNT (7) instead of 40
[1660101132.778778] [c301-015:4019363:0]        rc_iface.c:506  UCX  WARN  using maximal value for RETRY_COUNT (7) instead of 40
[1660101132.780211] [c301-015:4019367:0]        rc_iface.c:506  UCX  WARN  using maximal value for RETRY_COUNT (7) instead of 40
[1660101132.781976] [c301-015:4019371:0]        rc_iface.c:506  UCX  WARN  using maximal value for RETRY_COUNT (7) instead of 40
[1660101132.782182] [c301-015:4019363:0]        rc_iface.c:506  UCX  WARN  using maximal value for RETRY_COUNT (7) instead of 40


           ************************************************************
           *        Program running with 12 parallel MPI-processes    *
           *              working on a common directory               *
           ************************************************************
-------------------------------------------------------------------------------
                                 ORCA SCF
-------------------------------------------------------------------------------

------------
SCF SETTINGS
------------
Hamiltonian:
 Density Functional     Method          .... DFT(GTOs)
 Exchange Functional    Exchange        .... B88
   X-Alpha parameter    XAlpha          ....  0.666667
   Becke's b parameter  XBeta           ....  0.004200
 Correlation Functional Correlation     .... LYP
 LDA part of GGA corr.  LDAOpt          .... VWN-5
 Gradients option       PostSCFGGA      .... off
 Hybrid DFT is turned on
   Fraction HF Exchange ScalHFX         ....  0.200000
   Scaling of DF-GGA-X  ScalDFX         ....  0.720000
   Scaling of DF-GGA-C  ScalDFC         ....  0.810000
   Scaling of DF-LDA-C  ScalLDAC        ....  1.000000
   Perturbative correction              ....  0.000000
   Density functional embedding theory  .... OFF
   NL short-range parameter             ....  4.800000
 RI-approximation to the Coulomb term is turned on
   Number of AuxJ basis functions       .... 578
   RIJ-COSX (HFX calculated with COS-X)).... on


General Settings:
 Integral files         IntName         .... Abs_DFT_naphtalene_noesd
 Hartree-Fock type      HFTyp           .... RHF
 Total Charge           Charge          ....    0
 Multiplicity           Mult            ....    1
 Number of Electrons    NEL             ....   68
 Basis Dimension        Dim             ....  180
 Nuclear Repulsion      ENuc            ....    459.0601865566 Eh

Convergence Acceleration:
 DIIS                   CNVDIIS         .... on
   Start iteration      DIISMaxIt       ....    12
   Startup error        DIISStart       ....  0.200000
   # of expansion vecs  DIISMaxEq       ....     5
   Bias factor          DIISBfac        ....   1.050
   Max. coefficient     DIISMaxC        ....  10.000
 Trust-Rad. Augm. Hess. CNVTRAH         .... auto
   Auto Start mean grad. ratio tolernc. ....  1.125000
   Auto Start start iteration           ....    20
   Auto Start num. interpolation iter.  ....    10
   Max. Number of Micro iterations      ....    16
   Max. Number of Macro iterations      .... Maxiter - #DIIS iter
   Number of Davidson start vectors     ....     2
   Converg. threshold I  (grad. norm)   ....   1.000e-05
   Converg. threshold II (energy diff.) ....   1.000e-08
   Grad. Scal. Fac. for Micro threshold ....   0.100
   Minimum threshold for Micro iter.    ....   0.010
   NR start threshold (gradient norm)   ....   0.001
   Initial trust radius                 ....   0.400
   Minimum AH scaling param. (alpha)    ....   1.000
   Maximum AH scaling param. (alpha)    .... 1000.000
   Orbital update algorithm             .... Taylor
   White noise on init. David. guess    .... on
   Maximum white noise                  ....   0.010
   Quad. conv. algorithm                .... NR
 SOSCF                  CNVSOSCF        .... on
   Start iteration      SOSCFMaxIt      ....   150
   Startup grad/error   SOSCFStart      ....  0.003300
 Level Shifting         CNVShift        .... on
   Level shift para.    LevelShift      ....    0.2500
   Turn off err/grad.   ShiftErr        ....    0.0010
 Zerner damping         CNVZerner       .... off
 Static damping         CNVDamp         .... on
   Fraction old density DampFac         ....    0.7000
   Max. Damping (<1)    DampMax         ....    0.9800
   Min. Damping (>=0)   DampMin         ....    0.0000
   Turn off err/grad.   DampErr         ....    0.1000
 Fernandez-Rico         CNVRico         .... off

SCF Procedure:
 Maximum # iterations   MaxIter         ....   125
 SCF integral mode      SCFMode         .... Direct
   Integral package                     .... SHARK and LIBINT hybrid scheme
 Reset frequency        DirectResetFreq ....    20
 Integral Threshold     Thresh          ....  2.500e-11 Eh
 Primitive CutOff       TCut            ....  2.500e-12 Eh

Convergence Tolerance:
 Convergence Check Mode ConvCheckMode   .... Total+1el-Energy
 Convergence forced     ConvForced      .... 1
 Energy Change          TolE            ....  1.000e-08 Eh
 1-El. energy change                    ....  1.000e-05 Eh
 Orbital Gradient       TolG            ....  1.000e-05
 Orbital Rotation angle TolX            ....  1.000e-05
 DIIS Error             TolErr          ....  5.000e-07


Diagonalization of the overlap matrix:
Smallest eigenvalue                        ... 2.653e-04
Time for diagonalization                   ...    0.005 sec
Threshold for overlap eigenvalues          ... 1.000e-08
Number of eigenvalues below threshold      ... 0
Time for construction of square roots      ...    0.106 sec
Total time needed                          ...    0.112 sec

Time for model grid setup =    0.336 sec

------------------------------
INITIAL GUESS: MODEL POTENTIAL
------------------------------
Loading Hartree-Fock densities                     ... done
Calculating cut-offs                               ... done
Initializing the effective Hamiltonian             ... done
Setting up the integral package (SHARK)            ... done
Starting the Coulomb interaction                   ... done (   0.3 sec)
Reading the grid                                   ... done
Mapping shells                                     ... done
Starting the XC term evaluation                    ... done (   0.0 sec)
  promolecular density results
     # of electrons  =     67.995182938
     EX              =    -53.804371454
     EC              =     -2.265510820
     EX+EC           =    -56.069882274
Transforming the Hamiltonian                       ... done (   0.0 sec)
Diagonalizing the Hamiltonian                      ... done (   0.0 sec)
Back transforming the eigenvectors                 ... done (   0.0 sec)
Now organizing SCF variables                       ... done
                      ------------------
                      INITIAL GUESS DONE (   0.7 sec)
                      ------------------
-------------------
DFT GRID GENERATION
-------------------

General Integration Accuracy     IntAcc      ... 4.388
Radial Grid Type                 RadialGrid  ... OptM3 with GC (2021)
Angular Grid (max. ang.)         AngularGrid ... 4 (Lebedev-302)
Angular grid pruning method      GridPruning ... 4 (adaptive)
Weight generation scheme         WeightScheme... Becke
Basis function cutoff            BFCut       ... 1.0000e-11
Integration weight cutoff        WCut        ... 1.0000e-14
Angular grids for H and He will be reduced by one unit
Partially contracted basis set               ... off
Rotationally invariant grid construction     ... off

Total number of grid points                  ...    85584
Total number of batches                      ...     1350
Average number of points per batch           ...       63
Average number of grid points per atom       ...     4755
Time for grid setup =    0.665 sec

--------------------
COSX GRID GENERATION
--------------------

GRIDX 1
-------
General Integration Accuracy     IntAcc      ... 3.816
Radial Grid Type                 RadialGrid  ... OptM3 with GC (2021)
Angular Grid (max. ang.)         AngularGrid ... 1 (Lebedev-50)
Angular grid pruning method      GridPruning ... 4 (adaptive)
Weight generation scheme         WeightScheme... Becke
Basis function cutoff            BFCut       ... 1.0000e-11
Integration weight cutoff        WCut        ... 1.0000e-14
Angular grids for H and He will be reduced by one unit
Partially contracted basis set               ... on
Rotationally invariant grid construction     ... off

Total number of grid points                  ...    10956
Total number of batches                      ...      176
Average number of points per batch           ...       62
Average number of grid points per atom       ...      609
UseSFitting                                  ... on

GRIDX 2
-------
General Integration Accuracy     IntAcc      ... 4.020
Radial Grid Type                 RadialGrid  ... OptM3 with GC (2021)
Angular Grid (max. ang.)         AngularGrid ... 2 (Lebedev-110)
Angular grid pruning method      GridPruning ... 4 (adaptive)
Weight generation scheme         WeightScheme... Becke
Basis function cutoff            BFCut       ... 1.0000e-11
Integration weight cutoff        WCut        ... 1.0000e-14
Angular grids for H and He will be reduced by one unit
Partially contracted basis set               ... on
Rotationally invariant grid construction     ... off

Total number of grid points                  ...    23850
Total number of batches                      ...      384
Average number of points per batch           ...       62
Average number of grid points per atom       ...     1325
UseSFitting                                  ... on

GRIDX 3
-------
General Integration Accuracy     IntAcc      ... 4.338
Radial Grid Type                 RadialGrid  ... OptM3 with GC (2021)
Angular Grid (max. ang.)         AngularGrid ... 3 (Lebedev-194)
Angular grid pruning method      GridPruning ... 4 (adaptive)
Weight generation scheme         WeightScheme... Becke
Basis function cutoff            BFCut       ... 1.0000e-11
Integration weight cutoff        WCut        ... 1.0000e-14
Angular grids for H and He will be reduced by one unit
Partially contracted basis set               ... on
Rotationally invariant grid construction     ... off

Total number of grid points                  ...    52490
Total number of batches                      ...      830
Average number of points per batch           ...       63
Average number of grid points per atom       ...     2916
UseSFitting                                  ... on

Time for X-Grid setup             =    1.268 sec


--------------------
CPCM SOLVATION MODEL
--------------------
CPCM parameters:
  Epsilon                                         ...       2.4000
  Refrac                                          ...       1.4970
  Rsolv                                           ...       1.3000
  Surface type                                    ... GAUSSIAN VDW
  Epsilon function type                           ...         CPCM
Radii:
 Radius for C  used is    3.8550 Bohr (=   2.0400 Ang.)
 Radius for H  used is    2.4944 Bohr (=   1.3200 Ang.)
Calculating surface                               ...        done! (  0.0s)
GEPOL surface points                              ...          996
GEPOL Volume                                      ...    1144.6695
GEPOL Surface-area                                ...     615.5680
Calculating surface distance matrix               ...        done! (  0.0s)
Performing Cholesky decomposition & store         ...        done! (  0.1s)
Overall time for CPCM initialization              ...                 0.1s
--------------
SCF ITERATIONS
--------------
ITER       Energy         Delta-E        Max-DP      RMS-DP      [F,P]     Damp
               ***  Starting incremental Fock matrix formation  ***
  0   -385.1808853942   0.000000000000 0.05009546  0.00259013  0.1139149 0.7000
  1   -385.2624858758  -0.081600481600 0.03424711  0.00181634  0.0618522 0.7000
                               ***Turning on DIIS***
  2   -385.3013854682  -0.038899592382 0.05878080  0.00344553  0.0305628 0.0000
  3   -385.3571904705  -0.055805002293 0.02144536  0.00097221  0.0364453 0.0000
  4   -385.3701352376  -0.012944767094 0.00506738  0.00024328  0.0071282 0.0000
                      *** Initiating the SOSCF procedure ***
                           *** Shutting down DIIS ***
                      *** Re-Reading the Fockian *** 
                      *** Removing any level shift *** 
ITER      Energy       Delta-E        Grad      Rot      Max-DP    RMS-DP
  5   -385.37073820  -0.0006029651  0.000904  0.000904  0.002371  0.000095
               *** Restarting incremental Fock matrix formation ***
  6   -385.37077304  -0.0000348372  0.000398  0.000866  0.001294  0.000064
  7   -385.37077393  -0.0000008905  0.000374  0.000563  0.000597  0.000019
  8   -385.37077730  -0.0000033667  0.000090  0.000213  0.000240  0.000010
  9   -385.37077722   0.0000000732  0.000096  0.000146  0.000120  0.000005
 10   -385.37077748  -0.0000002522  0.000014  0.000036  0.000056  0.000002
 11   -385.37077747   0.0000000032  0.000017  0.000017  0.000029  0.000001
                 **** Energy Check signals convergence ****
              ***Rediagonalizing the Fockian in SOSCF/NRSCF***

               *****************************************************
               *                     SUCCESS                       *
               *           SCF CONVERGED AFTER  12 CYCLES          *
               *****************************************************

Old exchange energy                            =    -10.930370436 Eh
New exchange energy                            =    -10.930407202 Eh
Exchange energy change after final integration =     -0.000036766 Eh
Total energy after final integration           =   -385.370814249 Eh
Final COS-X integration done in                =     0.679 sec

----------------
TOTAL SCF ENERGY
----------------

Total Energy       :         -385.37081425 Eh          -10486.47298 eV

Components:
Nuclear Repulsion  :          459.06018656 Eh           12491.66274 eV
Electronic Energy  :         -844.43100081 Eh          -22978.13572 eV
One Electron Energy:        -1428.52906881 Eh          -38872.25219 eV
Two Electron Energy:          584.09806800 Eh           15894.11647 eV
Max COSX asymmetry :            0.00000300 Eh               0.00008 eV
CPCM Dielectric    :           -0.00302123 Eh              -0.08221 eV

Virial components:
Potential Energy   :         -766.81495417 Eh          -20866.09571 eV
Kinetic Energy     :          381.44413992 Eh           10379.62274 eV
Virial Ratio       :            2.01029423


DFT components:
N(Alpha)           :       34.000049738998 electrons
N(Beta)            :       34.000049738998 electrons
N(Total)           :       68.000099477997 electrons
E(X)               :      -43.379894604206 Eh       
E(C)               :       -2.677944855128 Eh       
E(XC)              :      -46.057839459334 Eh       
DFET-embed. en.    :        0.000000000000 Eh       
CPCM Solvation Model Properties:
Surface-charge          :           -0.02301612
Charge-correction       :            0.00001198 Eh               0.00033 eV
Free-energy (cav+disp)  :  This term is not implemented in the current solvation scheme

---------------
SCF CONVERGENCE
---------------

  Last Energy change         ...   -9.6675e-09  Tolerance :   1.0000e-08
  Last MAX-Density change    ...    2.2204e-15  Tolerance :   1.0000e-07
  Last RMS-Density change    ...    4.5165e-17  Tolerance :   5.0000e-09
  Last Orbital Gradient      ...    8.5425e-07  Tolerance :   1.0000e-05
  Last Orbital Rotation      ...    8.3528e-07  Tolerance :   1.0000e-05

             **** THE GBW FILE WAS UPDATED (Abs_DFT_naphtalene_noesd.gbw) ****
             **** DENSITY Abs_DFT_naphtalene_noesd.scfp WAS UPDATED ****
             **** ENERGY FILE WAS UPDATED (Abs_DFT_naphtalene_noesd.en.tmp) ****
             **** THE GBW FILE WAS UPDATED (Abs_DFT_naphtalene_noesd.gbw) ****
             **** DENSITY Abs_DFT_naphtalene_noesd.scfp WAS UPDATED ****
----------------
ORBITAL ENERGIES
----------------

  NO   OCC          E(Eh)            E(eV) 
   0   2.0000     -10.191771      -277.3322 
   1   2.0000     -10.191527      -277.3255 
   2   2.0000     -10.185987      -277.1748 
   3   2.0000     -10.185974      -277.1744 
   4   2.0000     -10.185829      -277.1705 
   5   2.0000     -10.185823      -277.1703 
   6   2.0000     -10.185374      -277.1581 
   7   2.0000     -10.185368      -277.1579 
   8   2.0000     -10.185351      -277.1575 
   9   2.0000     -10.185317      -277.1566 
  10   2.0000      -0.868083       -23.6218 
  11   2.0000      -0.814545       -22.1649 
  12   2.0000      -0.765655       -20.8345 
  13   2.0000      -0.732777       -19.9399 
  14   2.0000      -0.710915       -19.3450 
  15   2.0000      -0.619117       -16.8470 
  16   2.0000      -0.605748       -16.4832 
  17   2.0000      -0.591170       -16.0865 
  18   2.0000      -0.513174       -13.9642 
  19   2.0000      -0.503368       -13.6973 
  20   2.0000      -0.493222       -13.4212 
  21   2.0000      -0.443234       -12.0610 
  22   2.0000      -0.441627       -12.0173 
  23   2.0000      -0.417638       -11.3645 
  24   2.0000      -0.416323       -11.3287 
  25   2.0000      -0.397919       -10.8279 
  26   2.0000      -0.394753       -10.7418 
  27   2.0000      -0.368125       -10.0172 
  28   2.0000      -0.338998        -9.2246 
  29   2.0000      -0.331164        -9.0114 
  30   2.0000      -0.330205        -8.9853 
  31   2.0000      -0.289267        -7.8713 
  32   2.0000      -0.247954        -6.7472 
  33   2.0000      -0.220009        -5.9868 
  34   0.0000      -0.041947        -1.1414 
  35   0.0000      -0.013041        -0.3549 
  36   0.0000       0.026368         0.7175 
  37   0.0000       0.070790         1.9263 
  38   0.0000       0.086399         2.3510 
  39   0.0000       0.091803         2.4981 
  40   0.0000       0.095901         2.6096 
  41   0.0000       0.128860         3.5064 
  42   0.0000       0.129473         3.5231 
  43   0.0000       0.147507         4.0139 
  44   0.0000       0.156770         4.2659 
  45   0.0000       0.186340         5.0706 
  46   0.0000       0.193828         5.2743 
  47   0.0000       0.246975         6.7205 
  48   0.0000       0.281913         7.6712 
  49   0.0000       0.290302         7.8995 
  50   0.0000       0.293840         7.9958 
  51   0.0000       0.304623         8.2892 
  52   0.0000       0.309911         8.4331 
  53   0.0000       0.334489         9.1019 
  54   0.0000       0.347481         9.4554 
  55   0.0000       0.370683        10.0868 
  56   0.0000       0.383831        10.4446 
  57   0.0000       0.396564        10.7911 
  58   0.0000       0.417348        11.3566 
  59   0.0000       0.427529        11.6336 
  60   0.0000       0.438797        11.9403 
  61   0.0000       0.457443        12.4477 
  62   0.0000       0.458220        12.4688 
  63   0.0000       0.485177        13.2023 
  64   0.0000       0.487888        13.2761 
  65   0.0000       0.491206        13.3664 
  66   0.0000       0.493416        13.4265 
  67   0.0000       0.508131        13.8270 
  68   0.0000       0.520188        14.1550 
  69   0.0000       0.534691        14.5497 
  70   0.0000       0.550672        14.9845 
  71   0.0000       0.550799        14.9880 
  72   0.0000       0.564303        15.3555 
  73   0.0000       0.611394        16.6369 
  74   0.0000       0.624013        16.9803 
  75   0.0000       0.630443        17.1552 
  76   0.0000       0.650074        17.6894 
  77   0.0000       0.652858        17.7652 
  78   0.0000       0.656475        17.8636 
  79   0.0000       0.666526        18.1371 
  80   0.0000       0.669788        18.2259 
  81   0.0000       0.694743        18.9049 
  82   0.0000       0.700481        19.0610 
  83   0.0000       0.706055        19.2127 
  84   0.0000       0.707731        19.2583 
  85   0.0000       0.746226        20.3058 
  86   0.0000       0.758918        20.6512 
  87   0.0000       0.759557        20.6686 
  88   0.0000       0.773090        21.0369 
  89   0.0000       0.773664        21.0525 
  90   0.0000       0.818071        22.2609 
  91   0.0000       0.821924        22.3657 
  92   0.0000       0.835305        22.7298 
  93   0.0000       0.864143        23.5145 
  94   0.0000       0.901068        24.5193 
  95   0.0000       0.926925        25.2229 
  96   0.0000       1.024324        27.8733 
  97   0.0000       1.089900        29.6577 
  98   0.0000       1.110411        30.2158 
  99   0.0000       1.114394        30.3242 
 100   0.0000       1.161352        31.6020 
 101   0.0000       1.206840        32.8398 
 102   0.0000       1.241818        33.7916 
 103   0.0000       1.243547        33.8386 
 104   0.0000       1.252003        34.0687 
 105   0.0000       1.269525        34.5455 
 106   0.0000       1.271741        34.6058 
 107   0.0000       1.275940        34.7201 
 108   0.0000       1.283164        34.9167 
 109   0.0000       1.291363        35.1398 
 110   0.0000       1.329735        36.1839 
 111   0.0000       1.335227        36.3334 
 112   0.0000       1.347492        36.6671 
 113   0.0000       1.504751        40.9463 
 114   0.0000       1.511737        41.1365 
 115   0.0000       1.645685        44.7814 
 116   0.0000       1.653001        44.9805 
 117   0.0000       1.658287        45.1243 
 118   0.0000       1.675399        45.5899 
 119   0.0000       1.708271        46.4844 
 120   0.0000       1.727628        47.0112 
 121   0.0000       1.727679        47.0125 
 122   0.0000       1.729895        47.0728 
 123   0.0000       1.739960        47.3467 
 124   0.0000       1.772125        48.2220 
 125   0.0000       1.781390        48.4741 
 126   0.0000       1.785167        48.5769 
 127   0.0000       1.796157        48.8759 
 128   0.0000       1.801217        49.0136 
 129   0.0000       1.810982        49.2793 
 130   0.0000       1.814652        49.3792 
 131   0.0000       1.830070        49.7987 
 132   0.0000       1.931688        52.5639 
 133   0.0000       1.932837        52.5952 
 134   0.0000       1.948375        53.0180 
 135   0.0000       1.959553        53.3221 
 136   0.0000       1.960530        53.3487 
 137   0.0000       1.991979        54.2045 
 138   0.0000       1.992206        54.2107 
 139   0.0000       2.045581        55.6631 
 140   0.0000       2.053734        55.8850 
 141   0.0000       2.097968        57.0886 
 142   0.0000       2.126760        57.8721 
 143   0.0000       2.132102        58.0174 
 144   0.0000       2.138315        58.1865 
 145   0.0000       2.142060        58.2884 
 146   0.0000       2.178684        59.2850 
 147   0.0000       2.184507        59.4435 
 148   0.0000       2.200068        59.8669 
 149   0.0000       2.251150        61.2569 
 150   0.0000       2.294500        62.4365 
 151   0.0000       2.301651        62.6311 
 152   0.0000       2.306798        62.7712 
 153   0.0000       2.371964        64.5444 
 154   0.0000       2.375873        64.6508 
 155   0.0000       2.384210        64.8777 
 156   0.0000       2.419957        65.8504 
 157   0.0000       2.469847        67.2080 
 158   0.0000       2.521704        68.6191 
 159   0.0000       2.535021        68.9814 
 160   0.0000       2.586372        70.3787 
 161   0.0000       2.606367        70.9229 
 162   0.0000       2.647244        72.0352 
 163   0.0000       2.657972        72.3271 
 164   0.0000       2.693786        73.3016 
 165   0.0000       2.735652        74.4409 
 166   0.0000       2.748253        74.7838 
 167   0.0000       2.756960        75.0207 
 168   0.0000       2.770090        75.3780 
 169   0.0000       2.808214        76.4154 
 170   0.0000       2.906665        79.0944 
 171   0.0000       2.913160        79.2711 
 172   0.0000       2.943311        80.0916 
 173   0.0000       2.999758        81.6276 
 174   0.0000       3.116164        84.7951 
 175   0.0000       3.130852        85.1948 
 176   0.0000       3.164282        86.1045 
 177   0.0000       3.278650        89.2166 
 178   0.0000       3.571314        97.1804 
 179   0.0000       3.690122       100.4133 

                    ********************************
                    * MULLIKEN POPULATION ANALYSIS *
                    ********************************

-----------------------
MULLIKEN ATOMIC CHARGES
-----------------------
   0 C :    0.022606
   1 C :   -0.023207
   2 C :    0.079852
   3 C :    0.079844
   4 C :   -0.023295
   5 C :    0.022138
   6 H :   -0.025918
   7 H :   -0.013216
   8 H :   -0.025944
   9 C :   -0.023296
  10 C :   -0.023202
  11 H :   -0.025919
  12 H :   -0.013017
  13 C :    0.022607
  14 C :    0.022141
  15 H :   -0.025943
  16 H :   -0.013216
  17 H :   -0.013016
Sum of atomic charges:    0.0000000

--------------------------------
MULLIKEN REDUCED ORBITAL CHARGES
--------------------------------
  0 C s       :     3.162448  s :     3.162448
      pz      :     0.989235  p :     2.779281
      px      :     0.932906
      py      :     0.857140
      dz2     :     0.002468  d :     0.035664
      dxz     :     0.005813
      dyz     :     0.003209
      dx2y2   :     0.011304
      dxy     :     0.012870
  1 C s       :     3.244465  s :     3.244465
      pz      :     0.989105  p :     2.743550
      px      :     0.888148
      py      :     0.866297
      dz2     :     0.002517  d :     0.035191
      dxz     :     0.006056
      dyz     :     0.002903
      dx2y2   :     0.010709
      dxy     :     0.013005
  2 C s       :     3.081086  s :     3.081086
      pz      :     0.976209  p :     2.796488
      px      :     0.869088
      py      :     0.951191
      dz2     :     0.003113  d :     0.042574
      dxz     :     0.006437
      dyz     :     0.005794
      dx2y2   :     0.013441
      dxy     :     0.013789
  3 C s       :     3.081088  s :     3.081088
      pz      :     0.976208  p :     2.796494
      px      :     0.869106
      py      :     0.951180
      dz2     :     0.003113  d :     0.042574
      dxz     :     0.006437
      dyz     :     0.005794
      dx2y2   :     0.013441
      dxy     :     0.013789
  4 C s       :     3.244659  s :     3.244659
      pz      :     0.989107  p :     2.743446
      px      :     0.938549
      py      :     0.815790
      dz2     :     0.002517  d :     0.035191
      dxz     :     0.005071
      dyz     :     0.003889
      dx2y2   :     0.011809
      dxy     :     0.011905
  5 C s       :     3.162311  s :     3.162311
      pz      :     0.989391  p :     2.779884
      px      :     0.831970
      py      :     0.958523
      dz2     :     0.002469  d :     0.035667
      dxz     :     0.002361
      dyz     :     0.006661
      dx2y2   :     0.013335
      dxy     :     0.010842
  6 H s       :     1.002553  s :     1.002553
      pz      :     0.004719  p :     0.023365
      px      :     0.006512
      py      :     0.012134
  7 H s       :     0.989965  s :     0.989965
      pz      :     0.004662  p :     0.023250
      px      :     0.006416
      py      :     0.012172
  8 H s       :     1.002577  s :     1.002577
      pz      :     0.004719  p :     0.023367
      px      :     0.006419
      py      :     0.012228
  9 C s       :     3.244669  s :     3.244669
      pz      :     0.989106  p :     2.743437
      px      :     0.938559
      py      :     0.815771
      dz2     :     0.002517  d :     0.035191
      dxz     :     0.005071
      dyz     :     0.003889
      dx2y2   :     0.011809
      dxy     :     0.011904
 10 C s       :     3.244475  s :     3.244475
      pz      :     0.989100  p :     2.743536
      px      :     0.888147
      py      :     0.866289
      dz2     :     0.002517  d :     0.035191
      dxz     :     0.006056
      dyz     :     0.002903
      dx2y2   :     0.010709
      dxy     :     0.013005
 11 H s       :     1.002554  s :     1.002554
      pz      :     0.004719  p :     0.023365
      px      :     0.006512
      py      :     0.012134
 12 H s       :     0.989772  s :     0.989772
      pz      :     0.004662  p :     0.023245
      px      :     0.015161
      py      :     0.003422
 13 C s       :     3.162444  s :     3.162444
      pz      :     0.989236  p :     2.779284
      px      :     0.932906
      py      :     0.857143
      dz2     :     0.002468  d :     0.035665
      dxz     :     0.005813
      dyz     :     0.003209
      dx2y2   :     0.011304
      dxy     :     0.012870
 14 C s       :     3.162310  s :     3.162310
      pz      :     0.989391  p :     2.779882
      px      :     0.831977
      py      :     0.958514
      dz2     :     0.002469  d :     0.035667
      dxz     :     0.002361
      dyz     :     0.006661
      dx2y2   :     0.013334
      dxy     :     0.010842
 15 H s       :     1.002576  s :     1.002576
      pz      :     0.004719  p :     0.023367
      px      :     0.006419
      py      :     0.012228
 16 H s       :     0.989965  s :     0.989965
      pz      :     0.004662  p :     0.023250
      px      :     0.006416
      py      :     0.012172
 17 H s       :     0.989772  s :     0.989772
      pz      :     0.004662  p :     0.023245
      px      :     0.015161
      py      :     0.003422


                     *******************************
                     * LOEWDIN POPULATION ANALYSIS *
                     *******************************

----------------------
LOEWDIN ATOMIC CHARGES
----------------------
   0 C :   -0.028865
   1 C :   -0.018035
   2 C :   -0.021306
   3 C :   -0.021303
   4 C :   -0.018058
   5 C :   -0.029027
   6 H :    0.028555
   7 H :    0.029074
   8 H :    0.028557
   9 C :   -0.018056
  10 C :   -0.018033
  11 H :    0.028554
  12 H :    0.029100
  13 C :   -0.028865
  14 C :   -0.029025
  15 H :    0.028558
  16 H :    0.029074
  17 H :    0.029100

-------------------------------
LOEWDIN REDUCED ORBITAL CHARGES
-------------------------------
  0 C s       :     2.857220  s :     2.857220
      pz      :     0.969884  p :     3.079089
      px      :     1.067929
      py      :     1.041277
      dz2     :     0.006180  d :     0.092555
      dxz     :     0.012296
      dyz     :     0.006169
      dx2y2   :     0.031803
      dxy     :     0.036108
  1 C s       :     2.857013  s :     2.857013
      pz      :     0.970672  p :     3.068992
      px      :     1.062320
      py      :     1.036001
      dz2     :     0.006201  d :     0.092030
      dxz     :     0.012466
      dyz     :     0.005579
      dx2y2   :     0.031030
      dxy     :     0.036754
  2 C s       :     2.841057  s :     2.841057
      pz      :     0.961947  p :     3.069243
      px      :     1.051968
      py      :     1.055328
      dz2     :     0.007489  d :     0.111005
      dxz     :     0.013068
      dyz     :     0.011851
      dx2y2   :     0.038986
      dxy     :     0.039612
  3 C s       :     2.841058  s :     2.841058
      pz      :     0.961946  p :     3.069241
      px      :     1.051965
      py      :     1.055330
      dz2     :     0.007489  d :     0.111005
      dxz     :     0.013067
      dyz     :     0.011852
      dx2y2   :     0.038987
      dxy     :     0.039610
  4 C s       :     2.857026  s :     2.857026
      pz      :     0.970680  p :     3.069001
      px      :     1.045606
      py      :     1.052714
      dz2     :     0.006200  d :     0.092032
      dxz     :     0.010655
      dyz     :     0.007392
      dx2y2   :     0.033711
      dxy     :     0.034072
  5 C s       :     2.857229  s :     2.857229
      pz      :     0.969995  p :     3.079246
      px      :     1.040464
      py      :     1.068788
      dz2     :     0.006179  d :     0.092552
      dxz     :     0.003979
      dyz     :     0.014486
      dx2y2   :     0.036838
      dxy     :     0.031071
  6 H s       :     0.902501  s :     0.902501
      pz      :     0.014792  p :     0.068944
      px      :     0.019537
      py      :     0.034615
  7 H s       :     0.902258  s :     0.902258
      pz      :     0.014648  p :     0.068668
      px      :     0.019043
      py      :     0.034977
  8 H s       :     0.902494  s :     0.902494
      pz      :     0.014794  p :     0.068949
      px      :     0.019061
      py      :     0.035095
  9 C s       :     2.857026  s :     2.857026
      pz      :     0.970680  p :     3.068999
      px      :     1.045609
      py      :     1.052710
      dz2     :     0.006200  d :     0.092031
      dxz     :     0.010655
      dyz     :     0.007392
      dx2y2   :     0.033712
      dxy     :     0.034071
 10 C s       :     2.857012  s :     2.857012
      pz      :     0.970667  p :     3.068990
      px      :     1.062321
      py      :     1.036002
      dz2     :     0.006201  d :     0.092031
      dxz     :     0.012466
      dyz     :     0.005580
      dx2y2   :     0.031030
      dxy     :     0.036754
 11 H s       :     0.902502  s :     0.902502
      pz      :     0.014792  p :     0.068943
      px      :     0.019538
      py      :     0.034614
 12 H s       :     0.902229  s :     0.902229
      pz      :     0.014651  p :     0.068671
      px      :     0.042601
      py      :     0.011419
 13 C s       :     2.857218  s :     2.857218
      pz      :     0.969884  p :     3.079091
      px      :     1.067929
      py      :     1.041278
      dz2     :     0.006180  d :     0.092557
      dxz     :     0.012296
      dyz     :     0.006169
      dx2y2   :     0.031803
      dxy     :     0.036108
 14 C s       :     2.857229  s :     2.857229
      pz      :     0.969995  p :     3.079244
      px      :     1.040464
      py      :     1.068785
      dz2     :     0.006179  d :     0.092552
      dxz     :     0.003978
      dyz     :     0.014486
      dx2y2   :     0.036838
      dxy     :     0.031070
 15 H s       :     0.902492  s :     0.902492
      pz      :     0.014794  p :     0.068949
      px      :     0.019061
      py      :     0.035094
 16 H s       :     0.902258  s :     0.902258
      pz      :     0.014648  p :     0.068668
      px      :     0.019043
      py      :     0.034977
 17 H s       :     0.902229  s :     0.902229
      pz      :     0.014651  p :     0.068670
      px      :     0.042601
      py      :     0.011419


                      *****************************
                      * MAYER POPULATION ANALYSIS *
                      *****************************

  NA   - Mulliken gross atomic population
  ZA   - Total nuclear charge
  QA   - Mulliken gross atomic charge
  VA   - Mayer's total valence
  BVA  - Mayer's bonded valence
  FA   - Mayer's free valence

  ATOM       NA         ZA         QA         VA         BVA        FA
  0 C      5.9774     6.0000     0.0226     3.7975     3.7975    -0.0000
  1 C      6.0232     6.0000    -0.0232     3.7869     3.7869     0.0000
  2 C      5.9201     6.0000     0.0799     3.7880     3.7880     0.0000
  3 C      5.9202     6.0000     0.0798     3.7880     3.7880     0.0000
  4 C      6.0233     6.0000    -0.0233     3.7873     3.7873    -0.0000
  5 C      5.9779     6.0000     0.0221     3.7973     3.7973    -0.0000
  6 H      1.0259     1.0000    -0.0259     0.9844     0.9844     0.0000
  7 H      1.0132     1.0000    -0.0132     0.9776     0.9776     0.0000
  8 H      1.0259     1.0000    -0.0259     0.9845     0.9845    -0.0000
  9 C      6.0233     6.0000    -0.0233     3.7873     3.7873     0.0000
 10 C      6.0232     6.0000    -0.0232     3.7869     3.7869     0.0000
 11 H      1.0259     1.0000    -0.0259     0.9844     0.9844    -0.0000
 12 H      1.0130     1.0000    -0.0130     0.9776     0.9776     0.0000
 13 C      5.9774     6.0000     0.0226     3.7975     3.7975     0.0000
 14 C      5.9779     6.0000     0.0221     3.7973     3.7973    -0.0000
 15 H      1.0259     1.0000    -0.0259     0.9845     0.9845    -0.0000
 16 H      1.0132     1.0000    -0.0132     0.9776     0.9776     0.0000
 17 H      1.0130     1.0000    -0.0130     0.9776     0.9776    -0.0000

  Mayer bond orders larger than 0.100000
B(  0-C ,  1-C ) :   1.4762 B(  0-C ,  5-C ) :   1.2486 B(  0-C ,  7-H ) :   0.9883 
B(  1-C ,  2-C ) :   1.2384 B(  1-C ,  8-H ) :   0.9962 B(  2-C ,  3-C ) :   1.2477 
B(  2-C ,  9-C ) :   1.2383 B(  3-C ,  4-C ) :   1.2383 B(  3-C , 10-C ) :   1.2384 
B(  4-C ,  5-C ) :   1.4764 B(  4-C , 11-H ) :   0.9961 B(  5-C , 12-H ) :   0.9880 
B(  6-H ,  9-C ) :   0.9961 B(  9-C , 14-C ) :   1.4764 B( 10-C , 13-C ) :   1.4762 
B( 10-C , 15-H ) :   0.9962 B( 13-C , 14-C ) :   1.2487 B( 13-C , 16-H ) :   0.9883 
B( 14-C , 17-H ) :   0.9880 

-------
TIMINGS
-------

Total SCF time: 0 days 0 hours 0 min 14 sec 

Total time                  ....      14.884 sec
Sum of individual times     ....      13.798 sec  ( 92.7%)

Fock matrix formation       ....      10.878 sec  ( 73.1%)
  Split-RI-J                ....       0.913 sec  (  8.4% of F)
  Chain of spheres X        ....       4.081 sec  ( 37.5% of F)
  XC integration            ....       2.744 sec  ( 25.2% of F)
    Basis function eval.    ....       0.267 sec  (  9.7% of XC)
    Density eval.           ....       0.197 sec  (  7.2% of XC)
    XC-Functional eval.     ....       0.072 sec  (  2.6% of XC)
    XC-Potential eval.      ....       0.174 sec  (  6.4% of XC)
Diagonalization             ....       0.061 sec  (  0.4%)
Density matrix formation    ....       0.015 sec  (  0.1%)
Population analysis         ....       0.029 sec  (  0.2%)
Initial guess               ....       0.387 sec  (  2.6%)
Orbital Transformation      ....       0.000 sec  (  0.0%)
Orbital Orthonormalization  ....       0.000 sec  (  0.0%)
DIIS solution               ....       0.085 sec  (  0.6%)
SOSCF solution              ....       0.073 sec  (  0.5%)
Grid generation             ....       2.269 sec  ( 15.2%)

Maximum memory used throughout the entire SCF-calculation: 54.6 MB
[1660101148.817805] [c301-015:4019440:0]        rc_iface.c:506  UCX  WARN  using maximal value for RETRY_COUNT (7) instead of 40
[1660101148.820447] [c301-015:4019440:0]        rc_iface.c:506  UCX  WARN  using maximal value for RETRY_COUNT (7) instead of 40
[1660101148.831134] [c301-015:4019442:0]        rc_iface.c:506  UCX  WARN  using maximal value for RETRY_COUNT (7) instead of 40
[1660101148.833665] [c301-015:4019442:0]        rc_iface.c:506  UCX  WARN  using maximal value for RETRY_COUNT (7) instead of 40
[1660101148.849705] [c301-015:4019454:0]        rc_iface.c:506  UCX  WARN  using maximal value for RETRY_COUNT (7) instead of 40
[1660101148.852022] [c301-015:4019454:0]        rc_iface.c:506  UCX  WARN  using maximal value for RETRY_COUNT (7) instead of 40
[1660101148.859495] [c301-015:4019452:0]        rc_iface.c:506  UCX  WARN  using maximal value for RETRY_COUNT (7) instead of 40
[1660101148.861847] [c301-015:4019452:0]        rc_iface.c:506  UCX  WARN  using maximal value for RETRY_COUNT (7) instead of 40
[1660101148.922297] [c301-015:4019447:0]        rc_iface.c:506  UCX  WARN  using maximal value for RETRY_COUNT (7) instead of 40
[1660101148.924731] [c301-015:4019447:0]        rc_iface.c:506  UCX  WARN  using maximal value for RETRY_COUNT (7) instead of 40
[1660101148.927405] [c301-015:4019444:0]        rc_iface.c:506  UCX  WARN  using maximal value for RETRY_COUNT (7) instead of 40
[1660101148.930130] [c301-015:4019444:0]        rc_iface.c:506  UCX  WARN  using maximal value for RETRY_COUNT (7) instead of 40
[1660101148.932856] [c301-015:4019439:0]        rc_iface.c:506  UCX  WARN  using maximal value for RETRY_COUNT (7) instead of 40
[1660101148.933104] [c301-015:4019441:0]        rc_iface.c:506  UCX  WARN  using maximal value for RETRY_COUNT (7) instead of 40
[1660101148.933193] [c301-015:4019453:0]        rc_iface.c:506  UCX  WARN  using maximal value for RETRY_COUNT (7) instead of 40
[1660101148.933328] [c301-015:4019449:0]        rc_iface.c:506  UCX  WARN  using maximal value for RETRY_COUNT (7) instead of 40
[1660101148.933532] [c301-015:4019443:0]        rc_iface.c:506  UCX  WARN  using maximal value for RETRY_COUNT (7) instead of 40
[1660101148.933546] [c301-015:4019445:0]        rc_iface.c:506  UCX  WARN  using maximal value for RETRY_COUNT (7) instead of 40
[1660101148.936953] [c301-015:4019441:0]        rc_iface.c:506  UCX  WARN  using maximal value for RETRY_COUNT (7) instead of 40
[1660101148.936958] [c301-015:4019439:0]        rc_iface.c:506  UCX  WARN  using maximal value for RETRY_COUNT (7) instead of 40
[1660101148.937172] [c301-015:4019453:0]        rc_iface.c:506  UCX  WARN  using maximal value for RETRY_COUNT (7) instead of 40
[1660101148.937296] [c301-015:4019449:0]        rc_iface.c:506  UCX  WARN  using maximal value for RETRY_COUNT (7) instead of 40
[1660101148.937414] [c301-015:4019443:0]        rc_iface.c:506  UCX  WARN  using maximal value for RETRY_COUNT (7) instead of 40
[1660101148.937545] [c301-015:4019445:0]        rc_iface.c:506  UCX  WARN  using maximal value for RETRY_COUNT (7) instead of 40


           ************************************************************
           *        Program running with 12 parallel MPI-processes    *
           *              working on a common directory               *
           ************************************************************
------------------------------------------------------------------------------
                        ORCA TD-DFT/TDA CALCULATION
------------------------------------------------------------------------------

Input orbitals are from        ... Abs_DFT_naphtalene_noesd.gbw
CI-vector output               ... Abs_DFT_naphtalene_noesd.cis
Tamm-Dancoff approximation     ... operative
CIS-Integral strategy          ... AO-integrals
Integral handling              ... AO integral Direct
Max. core memory used          ... 16000 MB
Reference state                ... RHF
Generation of triplets         ... off
Follow IRoot                   ... off
Number of operators            ... 1
Orbital ranges used for CIS calculation:
 Operator 0:  Orbitals  10... 33  to  34...179
XAS localization array:
 Operator 0:  Orbitals  -1... -1

-------------------
XC-INTEGRATION GRID
-------------------

General Integration Accuracy     IntAcc      ... 3.467
Radial Grid Type                 RadialGrid  ... OptM3 with GC (2021)
Angular Grid (max. ang.)         AngularGrid ... 1 (Lebedev-50)
Angular grid pruning method      GridPruning ... 4 (adaptive)
Weight generation scheme         WeightScheme... Becke
Basis function cutoff            BFCut       ... 1.0000e-11
Integration weight cutoff        WCut        ... 1.0000e-14
Angular grids for H and He will be reduced by one unit
Partially contracted basis set               ... off
Rotationally invariant grid construction     ... off

Total number of grid points                  ...    12600
Total number of batches                      ...      206
Average number of points per batch           ...       61
Average number of grid points per atom       ...      700

---------------------
COSX-INTEGRATION GRID
---------------------

General Integration Accuracy     IntAcc      ... 3.067
Radial Grid Type                 RadialGrid  ... OptM3 with GC (2021)
Angular Grid (max. ang.)         AngularGrid ... 1 (Lebedev-50)
Angular grid pruning method      GridPruning ... 4 (adaptive)
Weight generation scheme         WeightScheme... Becke
Basis function cutoff            BFCut       ... 1.0000e-11
Integration weight cutoff        WCut        ... 1.0000e-14
Angular grids for H and He will be reduced by one unit
Partially contracted basis set               ... on
Rotationally invariant grid construction     ... off

Total number of grid points                  ...     5774
Total number of batches                      ...      102
Average number of points per batch           ...       56
Average number of grid points per atom       ...      321

---------------
TD-DFT XC SETUP
---------------

DFT calculation                         ... on
Name of the grid file                   ... Abs_DFT_naphtalene_noesd.grid_cis.tmp
Exchange functional (TD-DFT)            ... B88
   X-Alpha parameter    XAlpha (TD-DFT) ...  0.666667
   Becke's b parameter  XBeta (TD-DFT)  ...  0.004200
Correlation functional (TD-DFT)         ... LYP
 LDA part of GGA corr.  LDAOpt (TD-DFT) ... VWN-5
Hybrid DFT                              ... on
   Exchange mixing (TD-DFT)             ...  0.200
   GGA exch. scaling (TD-DFT)           ...  0.720
   GGA corr. scaling (TD-DFT)           ...  0.810

Building densities             ... done
Calculating rho(r) on the grid ... done
Building xc-kernel on the grid ... done
                    *** TD-DFT CALCULATION INITIALIZED ***

---------------------------------
    LR-CPCM (non-equilibrium)
---------------------------------

Setting up LR-CPCM             ... done

------------------------
DAVIDSON-DIAGONALIZATION
------------------------

Dimension of the eigenvalue problem            ...   3504
Number of roots to be determined               ...     15
Maximum size of the expansion space            ...    150
Maximum number of iterations                   ...    100
Convergence tolerance for the residual         ...    2.500e-07
Convergence tolerance for the energies         ...    2.500e-07
Orthogonality tolerance                        ...    1.000e-14
Level Shift                                    ...    0.000e+00
Constructing the preconditioner                ... o.k.
Building the initial guess                     ... o.k.
Number of trial vectors determined             ...    150


                       ****Iteration    0****

   Memory handling for direct AO based CIS:
   Memory per vector needed      ...     1 MB
   Memory needed                 ...    66 MB
   Memory available              ... 16000 MB
   Number of vectors per batch   ... 10787
   Number of batches             ...     1
   Time for densities:            0.040
   Time for RI-J (Direct):        0.167
   Time for K (COSX):             0.611
   Time for XC-Integration:       0.382
   Time for LR-CPCM terms:        0.378
   Time for Sigma-Completion:     0.235
   Size of expansion space: 45
   Lowest Energy          :     0.168454241478
   Maximum Energy change  :     0.285558213995 (vector 14)
   Maximum residual norm  :     0.037728505798

                       ****Iteration    1****
   Time for densities:            0.016
   Time for RI-J (Direct):        0.099
   Time for K (COSX):             0.247
   Time for XC-Integration:       0.147
   Time for LR-CPCM terms:        0.198
   Time for Sigma-Completion:     0.072
   Size of expansion space: 60
   Lowest Energy          :     0.167351670263
   Maximum Energy change  :     0.017725386951 (vector 5)
   Maximum residual norm  :     0.001900708883

                       ****Iteration    2****
   Time for densities:            0.016
   Time for RI-J (Direct):        0.100
   Time for K (COSX):             0.251
   Time for XC-Integration:       0.144
   Time for LR-CPCM terms:        0.206
   Time for Sigma-Completion:     0.072
   Size of expansion space: 75
   Lowest Energy          :     0.167342196346
   Maximum Energy change  :     0.003153079285 (vector 13)
   Maximum residual norm  :     0.000115234052

                       ****Iteration    3****
   Time for densities:            0.015
   Time for RI-J (Direct):        0.096
   Time for K (COSX):             0.253
   Time for XC-Integration:       0.150
   Time for LR-CPCM terms:        0.206
   Time for Sigma-Completion:     0.075
   Size of expansion space: 90
   Lowest Energy          :     0.167342068214
   Maximum Energy change  :     0.000139602981 (vector 12)
   Maximum residual norm  :     0.000001521366

                       ****Iteration    4****
   Time for densities:            0.014
   Time for RI-J (Direct):        0.099
   Time for K (COSX):             0.249
   Time for XC-Integration:       0.158
   Time for LR-CPCM terms:        0.200
   Time for Sigma-Completion:     0.078
   Size of expansion space: 105
   Lowest Energy          :     0.167342066861
   Maximum Energy change  :     0.000001802215 (vector 12)
   Maximum residual norm  :     0.000000014134

      *** CONVERGENCE OF RESIDUAL NORM REACHED ***

Storing the converged CI vectors               ... Abs_DFT_naphtalene_noesd.cis1

                 *** DAVIDSON DONE ***

Total time for solving the CIS problem:    11.638sec

------------------------------------
TD-DFT/TDA EXCITED STATES (SINGLETS)
------------------------------------

the weight of the individual excitations are printed if larger than 1.0e-02

STATE  1:  E=   0.167342 au      4.554 eV    36727.3 cm**-1 <S**2> =   0.000000
    32a ->  34a  :     0.496406 (c=  0.70456100)
    33a ->  35a  :     0.500368 (c=  0.70736699)

STATE  2:  E=   0.169323 au      4.608 eV    37162.2 cm**-1 <S**2> =   0.000000
    31a ->  36a  :     0.022687 (c= -0.15062263)
    32a ->  35a  :     0.060264 (c= -0.24548704)
    33a ->  34a  :     0.898977 (c=  0.94814400)

STATE  3:  E=   0.213098 au      5.799 eV    46769.5 cm**-1 <S**2> =   0.000000
    31a ->  34a  :     0.450046 (c=  0.67085446)
    33a ->  36a  :     0.548975 (c= -0.74092881)

STATE  4:  E=   0.226417 au      6.161 eV    49692.8 cm**-1 <S**2> =   0.000000
    32a ->  34a  :     0.473660 (c=  0.68822974)
    33a ->  35a  :     0.472433 (c= -0.68733789)

STATE  5:  E=   0.234379 au      6.378 eV    51440.2 cm**-1 <S**2> =   0.000000
    29a ->  34a  :     0.023496 (c= -0.15328538)
    31a ->  35a  :     0.474816 (c=  0.68906929)
    32a ->  36a  :     0.490175 (c=  0.70012527)

STATE  6:  E=   0.236918 au      6.447 eV    51997.5 cm**-1 <S**2> =   0.000000
    31a ->  36a  :     0.067768 (c=  0.26032234)
    32a ->  35a  :     0.862590 (c= -0.92875721)
    33a ->  34a  :     0.037886 (c= -0.19464432)

STATE  7:  E=   0.245359 au      6.677 eV    53850.0 cm**-1 <S**2> =   0.000000
    30a ->  34a  :     0.991016 (c= -0.99549804)

STATE  8:  E=   0.250551 au      6.818 eV    54989.6 cm**-1 <S**2> =   0.000000
    29a ->  35a  :     0.015281 (c= -0.12361689)
    31a ->  34a  :     0.516610 (c= -0.71875586)
    33a ->  36a  :     0.417259 (c= -0.64595606)

STATE  9:  E=   0.252957 au      6.883 eV    55517.7 cm**-1 <S**2> =   0.000000
    28a ->  34a  :     0.983647 (c=  0.99178960)

STATE 10:  E=   0.258204 au      7.026 eV    56669.2 cm**-1 <S**2> =   0.000000
    33a ->  37a  :     0.987809 (c= -0.99388579)

STATE 11:  E=   0.260628 au      7.092 eV    57201.2 cm**-1 <S**2> =   0.000000
    29a ->  34a  :     0.624179 (c= -0.79004995)
    31a ->  35a  :     0.097204 (c=  0.31177577)
    32a ->  36a  :     0.248469 (c= -0.49846681)
    33a ->  40a  :     0.018613 (c= -0.13643127)

STATE 12:  E=   0.272253 au      7.408 eV    59752.7 cm**-1 <S**2> =   0.000000
    30a ->  35a  :     0.983633 (c=  0.99178253)

STATE 13:  E=   0.274682 au      7.474 eV    60285.8 cm**-1 <S**2> =   0.000000
    29a ->  34a  :     0.108258 (c=  0.32902553)
    31a ->  35a  :     0.281180 (c=  0.53026434)
    32a ->  36a  :     0.126372 (c= -0.35548864)
    33a ->  40a  :     0.467158 (c=  0.68348930)

STATE 14:  E=   0.274967 au      7.482 eV    60348.3 cm**-1 <S**2> =   0.000000
    31a ->  37a  :     0.017572 (c= -0.13255819)
    33a ->  38a  :     0.974253 (c=  0.98704267)

STATE 15:  E=   0.278285 au      7.573 eV    61076.5 cm**-1 <S**2> =   0.000000
    33a ->  39a  :     0.986162 (c=  0.99305706)


------------------------------------------
NATURAL TRANSITION ORBITALS FOR STATE    1
------------------------------------------

Making the (pseudo)densities                       ... done
Solving eigenvalue problem for the occupied space  ... done
Solving eigenvalue problem for the virtual space   ... done
Natural Transition Orbitals were saved in Abs_DFT_naphtalene_noesd.s1.nto
Threshold for printing occupation numbers 0.001000

 E=   0.167342 au      4.554 eV    36727.3 cm**-1
    33a ->  34a  : n=  0.50087977
    32a ->  35a  : n=  0.49629400


------------------------------------------
NATURAL TRANSITION ORBITALS FOR STATE    2
------------------------------------------

Making the (pseudo)densities                       ... done
Solving eigenvalue problem for the occupied space  ... done
Solving eigenvalue problem for the virtual space   ... done
Natural Transition Orbitals were saved in Abs_DFT_naphtalene_noesd.s2.nto
Threshold for printing occupation numbers 0.001000

 E=   0.169323 au      4.608 eV    37162.2 cm**-1
    33a ->  34a  : n=  0.89933317
    32a ->  35a  : n=  0.06389139
    31a ->  36a  : n=  0.02303272
    30a ->  37a  : n=  0.00243166
    29a ->  38a  : n=  0.00158263
    28a ->  39a  : n=  0.00132736
    27a ->  40a  : n=  0.00106876
    26a ->  41a  : n=  0.00105784
    25a ->  42a  : n=  0.00104903


------------------------------------------
NATURAL TRANSITION ORBITALS FOR STATE    3
------------------------------------------

Making the (pseudo)densities                       ... done
Solving eigenvalue problem for the occupied space  ... done
Solving eigenvalue problem for the virtual space   ... done
Natural Transition Orbitals were saved in Abs_DFT_naphtalene_noesd.s3.nto
Threshold for printing occupation numbers 0.001000

 E=   0.213098 au      5.799 eV    46769.5 cm**-1
    33a ->  34a  : n=  0.54898757
    32a ->  35a  : n=  0.45005474


------------------------------------------
NATURAL TRANSITION ORBITALS FOR STATE    4
------------------------------------------

Making the (pseudo)densities                       ... done
Solving eigenvalue problem for the occupied space  ... done
Solving eigenvalue problem for the virtual space   ... done
Natural Transition Orbitals were saved in Abs_DFT_naphtalene_noesd.s4.nto
Threshold for printing occupation numbers 0.001000

 E=   0.226417 au      6.161 eV    49692.8 cm**-1
    33a ->  34a  : n=  0.47830909
    32a ->  35a  : n=  0.47436272
    31a ->  36a  : n=  0.00618715
    30a ->  37a  : n=  0.00580048
    29a ->  38a  : n=  0.00470867
    28a ->  39a  : n=  0.00466496
    27a ->  40a  : n=  0.00444851
    26a ->  41a  : n=  0.00401995
    25a ->  42a  : n=  0.00335894
    24a ->  43a  : n=  0.00305077
    23a ->  44a  : n=  0.00283381
    22a ->  45a  : n=  0.00276520
    21a ->  46a  : n=  0.00176140
    20a ->  47a  : n=  0.00130086


------------------------------------------
NATURAL TRANSITION ORBITALS FOR STATE    5
------------------------------------------

Making the (pseudo)densities                       ... done
Solving eigenvalue problem for the occupied space  ... done
Solving eigenvalue problem for the virtual space   ... done
Natural Transition Orbitals were saved in Abs_DFT_naphtalene_noesd.s5.nto
Threshold for printing occupation numbers 0.001000

 E=   0.234379 au      6.378 eV    51440.2 cm**-1
    33a ->  34a  : n=  0.49030510
    32a ->  35a  : n=  0.47498411
    31a ->  36a  : n=  0.02350139
    30a ->  37a  : n=  0.00931451


------------------------------------------
NATURAL TRANSITION ORBITALS FOR STATE    6
------------------------------------------

Making the (pseudo)densities                       ... done
Solving eigenvalue problem for the occupied space  ... done
Solving eigenvalue problem for the virtual space   ... done
Natural Transition Orbitals were saved in Abs_DFT_naphtalene_noesd.s6.nto
Threshold for printing occupation numbers 0.001000

 E=   0.236918 au      6.447 eV    51997.5 cm**-1
    33a ->  34a  : n=  0.86393578
    32a ->  35a  : n=  0.06859236
    31a ->  36a  : n=  0.03851159
    30a ->  37a  : n=  0.00818469
    29a ->  38a  : n=  0.00401500
    28a ->  39a  : n=  0.00397226
    27a ->  40a  : n=  0.00243694
    26a ->  41a  : n=  0.00201924
    25a ->  42a  : n=  0.00138193
    24a ->  43a  : n=  0.00108881


------------------------------------------
NATURAL TRANSITION ORBITALS FOR STATE    7
------------------------------------------

Making the (pseudo)densities                       ... done
Solving eigenvalue problem for the occupied space  ... done
Solving eigenvalue problem for the virtual space   ... done
Natural Transition Orbitals were saved in Abs_DFT_naphtalene_noesd.s7.nto
Threshold for printing occupation numbers 0.001000

 E=   0.245359 au      6.677 eV    53850.0 cm**-1
    33a ->  34a  : n=  0.99160138
    32a ->  35a  : n=  0.00567417


------------------------------------------
NATURAL TRANSITION ORBITALS FOR STATE    8
------------------------------------------

Making the (pseudo)densities                       ... done
Solving eigenvalue problem for the occupied space  ... done
Solving eigenvalue problem for the virtual space   ... done
Natural Transition Orbitals were saved in Abs_DFT_naphtalene_noesd.s8.nto
Threshold for printing occupation numbers 0.001000

 E=   0.250551 au      6.818 eV    54989.6 cm**-1
    33a ->  34a  : n=  0.51724314
    32a ->  35a  : n=  0.41897666
    31a ->  36a  : n=  0.01747641
    30a ->  37a  : n=  0.01081058
    29a ->  38a  : n=  0.00802893
    28a ->  39a  : n=  0.00622260
    27a ->  40a  : n=  0.00382637
    26a ->  41a  : n=  0.00290720
    25a ->  42a  : n=  0.00235678
    24a ->  43a  : n=  0.00232943
    23a ->  44a  : n=  0.00223035
    22a ->  45a  : n=  0.00220626
    21a ->  46a  : n=  0.00148323
    20a ->  47a  : n=  0.00120580


------------------------------------------
NATURAL TRANSITION ORBITALS FOR STATE    9
------------------------------------------

Making the (pseudo)densities                       ... done
Solving eigenvalue problem for the occupied space  ... done
Solving eigenvalue problem for the virtual space   ... [file orca_tools/Tool-Linalg/qcrdiag2.cpp, line 2737, Process 0]: Diagonalization failed with error code: -5 !


ORCA finished by error termination in CIS
Calling Command: mpirun -np 12  /work/08218/domller/ls6/apps/orca_5_0_2_linux_x86-64_shared_openmpi411/orca_cis_mpi Abs_DFT_naphtalene_noesd.cisinp.tmp Abs_DFT_naphtalene_noesd 
[file orca_tools/qcmsg.cpp, line 465]: 
  .... aborting the run

