
                                 *****************
                                 * O   R   C   A *
                                 *****************

                                            #,                                       
                                            ###                                      
                                            ####                                     
                                            #####                                    
                                            ######                                   
                                           ########,                                 
                                     ,,################,,,,,                         
                               ,,#################################,,                 
                          ,,##########################################,,             
                       ,#########################################, ''#####,          
                    ,#############################################,,   '####,        
                  ,##################################################,,,,####,       
                ,###########''''           ''''###############################       
              ,#####''   ,,,,##########,,,,          '''####'''          '####       
            ,##' ,,,,###########################,,,                        '##       
           ' ,,###''''                  '''############,,,                           
         ,,##''                                '''############,,,,        ,,,,,,###''
      ,#''                                            '''#######################'''  
     '                                                          ''''####''''         
             ,#######,   #######,   ,#######,      ##                                
            ,#'     '#,  ##    ##  ,#'     '#,    #''#        ######   ,####,        
            ##       ##  ##   ,#'  ##            #'  '#       #        #'  '#        
            ##       ##  #######   ##           ,######,      #####,   #    #        
            '#,     ,#'  ##    ##  '#,     ,#' ,#      #,         ##   #,  ,#        
             '#######'   ##     ##  '#######'  #'      '#     #####' # '####'        



                  #######################################################
                  #                        -***-                        #
                  #          Department of theory and spectroscopy      #
                  #    Directorship and core code : Frank Neese         #
                  #        Max Planck Institute fuer Kohlenforschung    #
                  #                Kaiser Wilhelm Platz 1               #
                  #                 D-45470 Muelheim/Ruhr               #
                  #                      Germany                        #
                  #                                                     #
                  #                  All rights reserved                #
                  #                        -***-                        #
                  #######################################################


                         Program Version 5.0.3 -  RELEASE  -


 With contributions from (in alphabetic order):
   Daniel Aravena         : Magnetic Suceptibility
   Michael Atanasov       : Ab Initio Ligand Field Theory (pilot matlab implementation)
   Alexander A. Auer      : GIAO ZORA, VPT2 properties, NMR spectrum
   Ute Becker             : Parallelization
   Giovanni Bistoni       : ED, misc. LED, open-shell LED, HFLD
   Martin Brehm           : Molecular dynamics
   Dmytro Bykov           : SCF Hessian
   Vijay G. Chilkuri      : MRCI spin determinant printing, contributions to CSF-ICE
   Dipayan Datta          : RHF DLPNO-CCSD density
   Achintya Kumar Dutta   : EOM-CC, STEOM-CC
   Dmitry Ganyushin       : Spin-Orbit,Spin-Spin,Magnetic field MRCI
   Miquel Garcia          : C-PCM and meta-GGA Hessian, CC/C-PCM, Gaussian charge scheme
   Yang Guo               : DLPNO-NEVPT2, F12-NEVPT2, CIM, IAO-localization
   Andreas Hansen         : Spin unrestricted coupled pair/coupled cluster methods
   Benjamin Helmich-Paris : MC-RPA, TRAH-SCF, COSX integrals
   Lee Huntington         : MR-EOM, pCC
   Robert Izsak           : Overlap fitted RIJCOSX, COSX-SCS-MP3, EOM
   Marcus Kettner         : VPT2
   Christian Kollmar      : KDIIS, OOCD, Brueckner-CCSD(T), CCSD density, CASPT2, CASPT2-K
   Simone Kossmann        : Meta GGA functionals, TD-DFT gradient, OOMP2, MP2 Hessian
   Martin Krupicka        : Initial AUTO-CI
   Lucas Lang             : DCDCAS
   Marvin Lechner         : AUTO-CI (C++ implementation), FIC-MRCC
   Dagmar Lenk            : GEPOL surface, SMD
   Dimitrios Liakos       : Extrapolation schemes; Compound Job, initial MDCI parallelization
   Dimitrios Manganas     : Further ROCIS development; embedding schemes
   Dimitrios Pantazis     : SARC Basis sets
   Anastasios Papadopoulos: AUTO-CI, single reference methods and gradients
   Taras Petrenko         : DFT Hessian,TD-DFT gradient, ASA, ECA, R-Raman, ABS, FL, XAS/XES, NRVS
   Peter Pinski           : DLPNO-MP2, DLPNO-MP2 Gradient
   Christoph Reimann      : Effective Core Potentials
   Marius Retegan         : Local ZFS, SOC
   Christoph Riplinger    : Optimizer, TS searches, QM/MM, DLPNO-CCSD(T), (RO)-DLPNO pert. Triples
   Tobias Risthaus        : Range-separated hybrids, TD-DFT gradient, RPA, STAB
   Michael Roemelt        : Original ROCIS implementation
   Masaaki Saitow         : Open-shell DLPNO-CCSD energy and density
   Barbara Sandhoefer     : DKH picture change effects
   Avijit Sen             : IP-ROCIS
   Kantharuban Sivalingam : CASSCF convergence, NEVPT2, FIC-MRCI
   Bernardo de Souza      : ESD, SOC TD-DFT
   Georgi Stoychev        : AutoAux, RI-MP2 NMR, DLPNO-MP2 response
   Willem Van den Heuvel  : Paramagnetic NMR
   Boris Wezisla          : Elementary symmetry handling
   Frank Wennmohs         : Technical directorship


 We gratefully acknowledge several colleagues who have allowed us to
 interface, adapt or use parts of their codes:
   Stefan Grimme, W. Hujo, H. Kruse, P. Pracht,  : VdW corrections, initial TS optimization,
                  C. Bannwarth, S. Ehlert          DFT functionals, gCP, sTDA/sTD-DF
   Ed Valeev, F. Pavosevic, A. Kumar             : LibInt (2-el integral package), F12 methods
   Garnet Chan, S. Sharma, J. Yang, R. Olivares  : DMRG
   Ulf Ekstrom                                   : XCFun DFT Library
   Mihaly Kallay                                 : mrcc  (arbitrary order and MRCC methods)
   Jiri Pittner, Ondrej Demel                    : Mk-CCSD
   Frank Weinhold                                : gennbo (NPA and NBO analysis)
   Christopher J. Cramer and Donald G. Truhlar   : smd solvation model
   Lars Goerigk                                  : TD-DFT with DH, B97 family of functionals
   V. Asgeirsson, H. Jonsson                     : NEB implementation
   FAccTs GmbH                                   : IRC, NEB, NEB-TS, DLPNO-Multilevel, CI-OPT
                                                   MM, QMMM, 2- and 3-layer-ONIOM, Crystal-QMMM,
                                                   LR-CPCM, SF, NACMEs, symmetry and pop. for TD-DFT,
                                                   nearIR, NL-DFT gradient (VV10), updates on ESD,
                                                   ML-optimized integration grids
   S Lehtola, MJT Oliveira, MAL Marques          : LibXC Library
   Liviu Ungur et al                             : ANISO software


 Your calculation uses the libint2 library for the computation of 2-el integrals
 For citations please refer to: http://libint.valeyev.net

 Your ORCA version has been built with support for libXC version: 5.1.0
 For citations please refer to: https://tddft.org/programs/libxc/

 This ORCA versions uses:
   CBLAS   interface :  Fast vector & matrix operations
   LAPACKE interface :  Fast linear algebra routines
   SCALAPACK package :  Parallel linear algebra routines
   Shared memory     :  Shared parallel matrices
   BLAS/LAPACK       :  OpenBLAS 0.3.15  USE64BITINT DYNAMIC_ARCH NO_AFFINITY Haswell SINGLE_THREADED
        Core in use  :  Haswell
   Copyright (c) 2011-2014, The OpenBLAS Project


================================================================================

----- Orbital basis set information -----
Your calculation utilizes the basis: def2-TZVP
   F. Weigend and R. Ahlrichs, Phys. Chem. Chem. Phys. 7, 3297 (2005).

----- AuxJ basis set information -----
Your calculation utilizes the auxiliary basis: def2/J
   F. Weigend, Phys. Chem. Chem. Phys. 8, 1057 (2006).

----- AuxC basis set information -----
Your calculation utilizes the auxiliary basis: def2-TZVP/C
  H-La, Hf-Rn : A. Hellweg, C. Hattig, S. Hofener and W. Klopper, Theor. Chem. Acc. 117, 587 (2007).
        Ce-Lu : J. Chmela and M. E. Harding, Mol. Phys. (2018).

================================================================================
                                        WARNINGS
                       Please study these warnings very carefully!
================================================================================


WARNING: your system is open-shell and RHF/RKS was chosen
  ===> : WILL SWITCH to UHF/UKS


WARNING: Post HF methods need fully converged wavefunctions
  ===> : Setting SCFConvForced true
         You can overwrite this default with %scf ConvForced false 


WARNING: PNO calculations with unrestricted orbitals require UNOs
  ===> : Switching on UNOs

WARNING: Unrestricted DLPNO-CCSD(T0/T) with FullLMP2-Guess requested.
         This is not yet implemented.
         When comparing energies between closed and open shell calculations:
  ===> : Be aware to set UseFullLMP2Guess to false for the corresponding closed shell calculations.
         Note that UseFullLMP2Guess is done by default only for TightPNO closed shell calculations.


WARNING: MDCI localization with Augmented Hessian Foster-Boys
  ===> : Switching off randomization!

INFO   : the flag for use of the SHARK integral package has been found!

================================================================================
                                       INPUT FILE
================================================================================
NAME = /scratch/dca0099.321671/Energy_T0_def_pyrazine_Nickel.inp
|  1> !DLPNO-CCSD(T) DEF2-TZVP DEF2-TZVP/C def2/J RIJCOSX TIGHTSCF CPCM(CH2Cl2) RI-SOMF(1X)
|  2>  
|  3> %maxcore  120000
|  4> 
|  5> %mdci
|  6> 	DOSOLV  TRUE
|  7> 	Maxiter 1000 # maxiter, probably last two is just overkilling
|  8> end
|  9> 
| 10> # pyrazine_Nickel
| 11> 
| 12> * XYZ 0 3 
| 13>   Ni  0.00001861423108      0.00000489854055      0.00000596173458
| 14>   N   0.00001360609212      0.00001145178440      2.01194315667711
| 15>   N   0.00000350710160      0.00000667320926      4.68392361992765
| 16>   C   -1.14723920842501      0.23554809357182      2.64040931397799
| 17>   C   -4.37989290460869      0.16394471180762     -0.06250919253497
| 18>   C   -3.64063161927445      0.11493795118591      2.21422160046836
| 19>   H   -3.85214450936893      0.03672406161795      3.26813735805289
| 20>   C   -4.67379047216293      0.07942807612413      1.29032405850433
| 21>   C   -1.08267640536932      0.41653940952499      4.03711722346801
| 22>   N   -2.05422220296988      0.26903967269393      0.43966626918348
| 23>   C   -3.60003800600840      2.83783580311291      4.96266043524558
| 24>   N   -2.68728797771597      2.16905851367309      4.26184035359364
| 25>   C   -2.43346476809494      0.66790445451677      6.12140367989761
| 26>   H   -1.94045777210853     -0.19825587214021      6.53898161317895
| 27>   C   -2.33303861414818      0.23497028294327      1.75913256639132
| 28>   C   -3.99232789491057      2.47426925926693      6.24740071367029
| 29>   H   -4.74509751069521      3.05013946494302      6.76869071750713
| 30>   C   -3.04930393137710      0.24551743540251     -0.44393849707822
| 31>   C   -2.11900777523285      1.10104518068643      4.83654110180602
| 32>   C   -3.39533951687613      1.36838457737231      6.83548104266427
| 33>   H   -3.67391202535565      1.05411758127207      7.83297866389603
| 34>   H   -5.69734808329155     -0.01585880869461      1.62780293253888
| 35>   H   -4.03861552901671      3.70387879827756      4.47933093803161
| 36>   H   -5.15774381757431      0.14922685485422     -0.81291961451516
| 37>   H   -2.76997866379592      0.28219474909004     -1.48873319729170
| 38>   C   1.14726203338723     -0.23552868334708      2.64041645356234
| 39>   C   4.37993023694410     -0.16392117885614     -0.06248670900963
| 40>   C   3.64065734332844     -0.11490011436315      2.21423990315112
| 41>   H   3.85216429453484     -0.03667386519537      3.26815546286553
| 42>   C   4.67382050824264     -0.07939096682247      1.29034716195052
| 43>   C   1.08268763090024     -0.41652620624765      4.03712398883946
| 44>   N   2.05425757451579     -0.26902482437649      0.43967801188904
| 45>   C   3.59996672695401     -2.83790141753001      4.96268711080785
| 46>   N   2.68724518829423     -2.16909414971133      4.26185862496026
| 47>   C   2.43345592987881     -0.66793029957337      6.12141848705457
| 48>   H   1.94047272703381      0.19824542475253      6.53899240397685
| 49>   C   2.33306719621964     -0.23494746741577      1.75914585196196
| 50>   C   3.99225916844421     -2.47434574768395      6.24742970754475
| 51>   H   4.74500522693756     -3.05024051427891      6.76872662855233
| 52>   C   3.04934364594519     -0.24550233689618     -0.44392194043574
| 53>   C   2.11899797136518     -1.10105913403149      4.83655219436482
| 54>   C   3.39530242417273     -1.36844086083308      6.83550408362220
| 55>   H   3.67387616800654     -1.05418322196082      7.83300430409818
| 56>   H   5.69737575126183      0.01590665411012      1.62783023104327
| 57>   H   4.03851979367702     -3.70395919732682      4.47936184180719
| 58>   H   5.15778462421217     -0.14920353217517     -0.81289349754883
| 59>   H   2.77002361815983     -0.28218591283383     -1.48871783145697
| 60>   N   0.00002092327941     -0.00000555077012     -2.01193093540721
| 61>   N   0.00001160185106     -0.00001446696802     -4.68390868004843
| 62>   C   0.23561361177657      1.14723200175847     -2.64040668492341
| 63>   C   0.16390772788686      4.37991288487174      0.06249245321099
| 64>   C   0.11491139626056      3.64063508274521     -2.21423233501203
| 65>   H   0.03666503661589      3.85214044176945     -3.26814330179354
| 66>   C   0.07937001220309      4.67379820643365     -1.29034120641724
| 67>   C   0.41666237264894      1.08262322023958     -4.03710998433063
| 68>   N   0.26905555804210      2.05424181942758     -0.43966998860538
| 69>   C   2.83864143597538      3.59929474500702     -4.96276114273144
| 70>   N   2.16962480389695      2.68674946811993     -4.26190391737387
| 71>   C   0.66830593690170      2.43336315791261     -6.12139159456493
| 72>   H   -0.19800939828363      1.94059786775661     -6.53893277291620
| 73>   C   0.23500835187862      2.33304696047235     -1.75914041172241
| 74>   C   2.47512126955254      3.99169702528355     -6.24748023525939
| 75>   H   3.05118955099290      4.74429344666034     -6.76880154485880
| 76>   C   0.24550585875054      3.04932878258223      0.44392884082580
| 77>   C   1.10139725842699      2.11880254752689     -4.83653752729999
| 78>   C   1.36903255861704      3.39503239963902     -6.83550468249910
| 79>   H   1.05480320748756      3.67368956884183     -7.83299047827733
| 80>   H   -0.01595989787399      5.69735006208837     -1.62782553510581
| 81>   H   3.70484187582436      4.03761223279186     -4.47947791412139
| 82>   H   0.14916112909068      5.15776722135528      0.81289873599903
| 83>   H   0.28217409347024      2.77000992336835      1.48872560512671
| 84>   C   -0.23557543523437     -1.14724841554379     -2.64039627575814
| 85>   C   -0.16384226765110     -4.37990144434784      0.06253955656123
| 86>   C   -0.11483607715275     -3.64064819365298     -2.21419275982232
| 87>   H   -0.03657355578841     -3.85216478990842     -3.26809929283859
| 88>   C   -0.07928782331245     -4.67380044359088     -1.29028989597636
| 89>   C   -0.41663622926047     -1.08264785269374     -4.03710007182910
| 90>   N   -0.26901213619106     -2.05423709989579     -0.43964991099539
| 91>   C   -2.83873830267324     -3.59920756261061     -4.96273651171292
| 92>   N   -2.16967782390422     -2.68669061945617     -4.26188463140926
| 93>   C   -0.66833405055175     -2.43340223586423     -6.12136513712781
| 94>   H   0.19800747369694     -1.94068416881831     -6.53890760783639
| 95>   C   -0.23495953707260     -2.33305609073701     -1.75911756392099
| 96>   C   -2.47522862256918     -3.99164493486191     -6.24744785189598
| 97>   H   -3.05133292215328     -4.74421673193860     -6.76876491236240
| 98>   C   -0.24545610134529     -3.04931411914442      0.44396021859104
| 99>   C   -1.10141256328863     -2.11881025462302     -4.83651448397812
|100>   C   -1.36910517675600     -3.39504410080619     -6.83547162230748
|101>   H   -1.05488534476628     -3.67372688174734     -7.83295325734389
|102>   H   0.01606070085619     -5.69735462526426     -1.62776193273277
|103>   H   -3.70496575227522     -4.03747324179260     -4.47945464604298
|104>   H   -0.14908948903223     -5.15774712048403      0.81295472658839
|105>   H   -0.28212754030656     -2.76998384317208      1.48875380965948
|106> *
|107> 
|108> 
|109>                          ****END OF INPUT****
================================================================================

                       ****************************
                       * Single Point Calculation *
                       ****************************

---------------------------------
CARTESIAN COORDINATES (ANGSTROEM)
---------------------------------
  Ni     0.000019    0.000005    0.000006
  N      0.000014    0.000011    2.011943
  N      0.000004    0.000007    4.683924
  C     -1.147239    0.235548    2.640409
  C     -4.379893    0.163945   -0.062509
  C     -3.640632    0.114938    2.214222
  H     -3.852145    0.036724    3.268137
  C     -4.673790    0.079428    1.290324
  C     -1.082676    0.416539    4.037117
  N     -2.054222    0.269040    0.439666
  C     -3.600038    2.837836    4.962660
  N     -2.687288    2.169059    4.261840
  C     -2.433465    0.667904    6.121404
  H     -1.940458   -0.198256    6.538982
  C     -2.333039    0.234970    1.759133
  C     -3.992328    2.474269    6.247401
  H     -4.745098    3.050139    6.768691
  C     -3.049304    0.245517   -0.443938
  C     -2.119008    1.101045    4.836541
  C     -3.395340    1.368385    6.835481
  H     -3.673912    1.054118    7.832979
  H     -5.697348   -0.015859    1.627803
  H     -4.038616    3.703879    4.479331
  H     -5.157744    0.149227   -0.812920
  H     -2.769979    0.282195   -1.488733
  C      1.147262   -0.235529    2.640416
  C      4.379930   -0.163921   -0.062487
  C      3.640657   -0.114900    2.214240
  H      3.852164   -0.036674    3.268155
  C      4.673821   -0.079391    1.290347
  C      1.082688   -0.416526    4.037124
  N      2.054258   -0.269025    0.439678
  C      3.599967   -2.837901    4.962687
  N      2.687245   -2.169094    4.261859
  C      2.433456   -0.667930    6.121418
  H      1.940473    0.198245    6.538992
  C      2.333067   -0.234947    1.759146
  C      3.992259   -2.474346    6.247430
  H      4.745005   -3.050241    6.768727
  C      3.049344   -0.245502   -0.443922
  C      2.118998   -1.101059    4.836552
  C      3.395302   -1.368441    6.835504
  H      3.673876   -1.054183    7.833004
  H      5.697376    0.015907    1.627830
  H      4.038520   -3.703959    4.479362
  H      5.157785   -0.149204   -0.812893
  H      2.770024   -0.282186   -1.488718
  N      0.000021   -0.000006   -2.011931
  N      0.000012   -0.000014   -4.683909
  C      0.235614    1.147232   -2.640407
  C      0.163908    4.379913    0.062492
  C      0.114911    3.640635   -2.214232
  H      0.036665    3.852140   -3.268143
  C      0.079370    4.673798   -1.290341
  C      0.416662    1.082623   -4.037110
  N      0.269056    2.054242   -0.439670
  C      2.838641    3.599295   -4.962761
  N      2.169625    2.686749   -4.261904
  C      0.668306    2.433363   -6.121392
  H     -0.198009    1.940598   -6.538933
  C      0.235008    2.333047   -1.759140
  C      2.475121    3.991697   -6.247480
  H      3.051190    4.744293   -6.768802
  C      0.245506    3.049329    0.443929
  C      1.101397    2.118803   -4.836538
  C      1.369033    3.395032   -6.835505
  H      1.054803    3.673690   -7.832990
  H     -0.015960    5.697350   -1.627826
  H      3.704842    4.037612   -4.479478
  H      0.149161    5.157767    0.812899
  H      0.282174    2.770010    1.488726
  C     -0.235575   -1.147248   -2.640396
  C     -0.163842   -4.379901    0.062540
  C     -0.114836   -3.640648   -2.214193
  H     -0.036574   -3.852165   -3.268099
  C     -0.079288   -4.673800   -1.290290
  C     -0.416636   -1.082648   -4.037100
  N     -0.269012   -2.054237   -0.439650
  C     -2.838738   -3.599208   -4.962737
  N     -2.169678   -2.686691   -4.261885
  C     -0.668334   -2.433402   -6.121365
  H      0.198007   -1.940684   -6.538908
  C     -0.234960   -2.333056   -1.759118
  C     -2.475229   -3.991645   -6.247448
  H     -3.051333   -4.744217   -6.768765
  C     -0.245456   -3.049314    0.443960
  C     -1.101413   -2.118810   -4.836514
  C     -1.369105   -3.395044   -6.835472
  H     -1.054885   -3.673727   -7.832953
  H      0.016061   -5.697355   -1.627762
  H     -3.704966   -4.037473   -4.479455
  H     -0.149089   -5.157747    0.812955
  H     -0.282128   -2.769984    1.488754

----------------------------
CARTESIAN COORDINATES (A.U.)
----------------------------
  NO LB      ZA    FRAG     MASS         X           Y           Z
   0 Ni   28.0000    0    58.700    0.000035    0.000009    0.000011
   1 N     7.0000    0    14.007    0.000026    0.000022    3.802022
   2 N     7.0000    0    14.007    0.000007    0.000013    8.851333
   3 C     6.0000    0    12.011   -2.167968    0.445121    4.989650
   4 C     6.0000    0    12.011   -8.276798    0.309811   -0.118125
   5 C     6.0000    0    12.011   -6.879797    0.217201    4.184272
   6 H     1.0000    0     1.008   -7.279498    0.069398    6.175885
   7 C     6.0000    0    12.011   -8.832184    0.150097    2.438359
   8 C     6.0000    0    12.011   -2.045962    0.787145    7.629046
   9 N     7.0000    0    14.007   -3.881917    0.508411    0.830849
  10 C     6.0000    0    12.011   -6.803086    5.362732    9.378069
  11 N     7.0000    0    14.007   -5.078238    4.098927    8.053711
  12 C     6.0000    0    12.011   -4.598582    1.262157   11.567777
  13 H     1.0000    0     1.008   -3.666934   -0.374649   12.356884
  14 C     6.0000    0    12.011   -4.408804    0.444029    3.324279
  15 C     6.0000    0    12.011   -7.544406    4.675691   11.805876
  16 H     1.0000    0     1.008   -8.966935    5.763928   12.790972
  17 C     6.0000    0    12.011   -5.762349    0.463961   -0.838922
  18 C     6.0000    0    12.011   -4.004344    2.080674    9.139738
  19 C     6.0000    0    12.011   -6.416262    2.585872   12.917187
  20 H     1.0000    0     1.008   -6.942688    1.991994   14.802184
  21 H     1.0000    0     1.008  -10.766428   -0.029969    3.076102
  22 H     1.0000    0     1.008   -7.631877    6.999317    8.464709
  23 H     1.0000    0     1.008   -9.746723    0.281998   -1.536195
  24 H     1.0000    0     1.008   -5.234501    0.533271   -2.813298
  25 C     6.0000    0    12.011    2.168011   -0.445085    4.989664
  26 C     6.0000    0    12.011    8.276869   -0.309766   -0.118083
  27 C     6.0000    0    12.011    6.879845   -0.217130    4.184307
  28 H     1.0000    0     1.008    7.279536   -0.069304    6.175919
  29 C     6.0000    0    12.011    8.832241   -0.150027    2.438403
  30 C     6.0000    0    12.011    2.045983   -0.787120    7.629059
  31 N     7.0000    0    14.007    3.881984   -0.508383    0.830871
  32 C     6.0000    0    12.011    6.802951   -5.362856    9.378120
  33 N     7.0000    0    14.007    5.078157   -4.098994    8.053746
  34 C     6.0000    0    12.011    4.598565   -1.262205   11.567804
  35 H     1.0000    0     1.008    3.666962    0.374630   12.356905
  36 C     6.0000    0    12.011    4.408858   -0.443986    3.324304
  37 C     6.0000    0    12.011    7.544276   -4.675836   11.805931
  38 H     1.0000    0     1.008    8.966760   -5.764119   12.791040
  39 C     6.0000    0    12.011    5.762424   -0.463932   -0.838891
  40 C     6.0000    0    12.011    4.004326   -2.080700    9.139759
  41 C     6.0000    0    12.011    6.416192   -2.585978   12.917231
  42 H     1.0000    0     1.008    6.942620   -1.992118   14.802233
  43 H     1.0000    0     1.008   10.766480    0.030059    3.076153
  44 H     1.0000    0     1.008    7.631696   -6.999468    8.464767
  45 H     1.0000    0     1.008    9.746800   -0.281954   -1.536146
  46 H     1.0000    0     1.008    5.234586   -0.533254   -2.813269
  47 N     7.0000    0    14.007    0.000040   -0.000010   -3.801998
  48 N     7.0000    0    14.007    0.000022   -0.000027   -8.851305
  49 C     6.0000    0    12.011    0.445245    2.167954   -4.989646
  50 C     6.0000    0    12.011    0.309741    8.276836    0.118094
  51 C     6.0000    0    12.011    0.217151    6.879803   -4.184293
  52 H     1.0000    0     1.008    0.069287    7.279490   -6.175896
  53 C     6.0000    0    12.011    0.149988    8.832199   -2.438391
  54 C     6.0000    0    12.011    0.787378    2.045861   -7.629032
  55 N     7.0000    0    14.007    0.508441    3.881954   -0.830856
  56 C     6.0000    0    12.011    5.364255    6.801681   -9.378259
  57 N     7.0000    0    14.007    4.099997    5.077221   -8.053831
  58 C     6.0000    0    12.011    1.262915    4.598390  -11.567754
  59 H     1.0000    0     1.008   -0.374184    3.667199  -12.356792
  60 C     6.0000    0    12.011    0.444101    4.408820   -3.324294
  61 C     6.0000    0    12.011    4.677301    7.543214  -11.806027
  62 H     1.0000    0     1.008    5.765913    8.965415  -12.791181
  63 C     6.0000    0    12.011    0.463939    5.762396    0.838904
  64 C     6.0000    0    12.011    2.081339    4.003957   -9.139731
  65 C     6.0000    0    12.011    2.587097    6.415681  -12.917232
  66 H     1.0000    0     1.008    1.993289    6.942267  -14.802207
  67 H     1.0000    0     1.008   -0.030160   10.766431   -3.076144
  68 H     1.0000    0     1.008    7.001137    7.629981   -8.464986
  69 H     1.0000    0     1.008    0.281874    9.746768    1.536156
  70 H     1.0000    0     1.008    0.533232    5.234560    2.813284
  71 C     6.0000    0    12.011   -0.445173   -2.167985   -4.989626
  72 C     6.0000    0    12.011   -0.309617   -8.276814    0.118183
  73 C     6.0000    0    12.011   -0.217009   -6.879828   -4.184218
  74 H     1.0000    0     1.008   -0.069114   -7.279536   -6.175813
  75 C     6.0000    0    12.011   -0.149832   -8.832203   -2.438295
  76 C     6.0000    0    12.011   -0.787328   -2.045908   -7.629014
  77 N     7.0000    0    14.007   -0.508359   -3.881946   -0.830818
  78 C     6.0000    0    12.011   -5.364438   -6.801517   -9.378213
  79 N     7.0000    0    14.007   -4.100097   -5.077109   -8.053795
  80 C     6.0000    0    12.011   -1.262968   -4.598464  -11.567704
  81 H     1.0000    0     1.008    0.374180   -3.667362  -12.356745
  82 C     6.0000    0    12.011   -0.444009   -4.408837   -3.324250
  83 C     6.0000    0    12.011   -4.677504   -7.543116  -11.805965
  84 H     1.0000    0     1.008   -5.766184   -8.965270  -12.791112
  85 C     6.0000    0    12.011   -0.463845   -5.762369    0.838963
  86 C     6.0000    0    12.011   -2.081368   -4.003971   -9.139688
  87 C     6.0000    0    12.011   -2.587234   -6.415704  -12.917169
  88 H     1.0000    0     1.008   -1.993444   -6.942338  -14.802136
  89 H     1.0000    0     1.008    0.030350  -10.766440   -3.076024
  90 H     1.0000    0     1.008   -7.001371   -7.629719   -8.464943
  91 H     1.0000    0     1.008   -0.281738   -9.746730    1.536262
  92 H     1.0000    0     1.008   -0.533144   -5.234511    2.813337

--------------------------------
INTERNAL COORDINATES (ANGSTROEM)
--------------------------------
 Ni     0   0   0     0.000000000000     0.00000000     0.00000000
 N      1   0   0     2.011937194959     0.00000000     0.00000000
 N      2   1   0     2.671980463274   179.99970161     0.00000000
 C      2   1   3     1.329148690296   118.21856651   272.74376160
 C      4   2   1     4.214373668362   110.84345571    10.53700914
 C      5   4   2     2.394245604442    32.18094657   164.93794347
 H      6   5   4     1.077772489574   150.54697541   182.69907466
 C      6   5   4     1.386457656972    30.31911244   181.22458052
 C      3   2   4     1.328176881214    60.85735270   350.55914252
 N      1   2   4     2.117920260705    78.01864268   355.85946419
 C      7   6   5     3.283472725106   115.32015416   253.72139924
 N     11   7   6     1.330986274860    49.62900419   299.20074318
 C     12  11   7     2.403303038653    88.78898908   280.52427698
 H     13  12  11     1.080583610800   147.98060226   180.27611840
 C     10   1   2     1.349033218245   113.59676143   356.75440185
 C     11   7   6     1.391628388524   103.41018192   176.72554248
 H     16  11   7     1.081680108135   120.13241033   230.68480269
 C     10   1   2     1.330976455396   125.80964631   188.12426173
 C     12  11   7     1.339356493980   117.75596521   280.64925085
 C     16  11   7     1.387521000384   118.56918290    50.87456936
 H     20  16  11     1.082297506087   120.75146643   180.01889695
 H      8   6   5     1.081961997548   119.95758510   179.85359619
 H     11   7   6     1.084429857593   114.84894515    43.58560713
 H      5   4   2     1.080918340825   175.92455084   346.00314766
 H     18  10   1     1.082110805806   116.57687068   347.56680982
 C      2   1  10     1.329148898388   118.21855650   175.85908821
 C     26   2   1     4.214375025461   110.84335317    10.53762263
 C     27  26   2     2.394245505899    32.18096372   164.93703758
 H     28  27  26     1.077772027599   150.54696903   182.69916417
 C     28  27  26     1.386457652486    30.31911097   181.22446077
 C      3   2   4     1.328177064389    60.85736062   170.55901726
 N      1   2   4     2.117920255688    78.01864920   175.85940303
 C     29  28  27     3.283582939250   115.31831118   253.71986059
 N     33  29  28     1.330986226524    49.62881790   299.20117936
 C     34  33  29     2.403302888393    88.78899130   280.52569968
 H     35  34  33     1.080583545957   147.98060945   180.27634342
 C     32   1   2     1.349033525306   113.59675002   356.75444660
 C     33  29  28     1.391628407513   103.40929691   176.72517427
 H     38  33  29     1.081680123983   120.13241415   230.68402305
 C     32   1   2     1.330976510957   125.80961625   188.12452093
 C     34  33  29     1.339356708641   117.75597684   280.65084350
 C     38  33  29     1.387520971045   118.56918048    50.87388586
 H     42  38  33     1.082297502627   120.75145248   180.01873056
 H     30  28  27     1.081962011344   119.95758581   179.85354940
 H     33  29  28     1.084429889819   114.85002139    43.58517446
 H     27  26   2     1.080918315694   175.92452762   346.00204844
 H     40  32   1     1.082110815287   116.57686332   347.56660090
 N      1   2   4     2.011936897170   179.99986501   293.11135681
 N     48   1   2     2.671977744672   179.99971385    77.11193721
 C     48   1   2     1.329149985718   118.21855031   156.89149523
 C     50  48   1     4.214383843073   110.84272440   349.45915916
 C     51  50  48     2.394244780832    32.18104029   195.06689626
 H     52  51  50     1.077768683715   150.54671896   177.29917350
 C     52  51  50     1.386457373173    30.31909633   178.77546423
 C     49  48  50     1.328175733610    60.85728990     9.44423512
 N      1   2   4     2.117920004528   101.98145923    85.85953787
 C     53  52  51     3.284316110816   115.30932643   106.29264835
 N     57  53  52     1.330985719947    49.62849838    60.79501957
 C     58  57  53     2.403301351105    88.78903854    79.46228847
 H     59  58  57     1.080583419630   147.98063674   179.72178610
 C     56   1   2     1.349034364426   113.59683315   183.24452345
 C     57  53  52     1.391628401431   103.40130054   183.27793173
 H     62  57  53     1.081680149671   120.13243166   129.32137372
 C     56   1   2     1.330976913379   125.80934196   351.87420739
 C     58  57  53     1.339357151461   117.75611369    79.33601828
 C     62  57  53     1.387520689037   118.56914143   309.13085306
 H     66  62  57     1.082297471049   120.75145120   179.98210292
 H     54  52  51     1.081962044196   119.95759403   180.14654767
 H     57  53  52     1.084429850727   114.85922483   316.41807303
 H     51  50  48     1.080918322636   175.92440365    13.99794288
 H     64  56   1     1.082110836857   116.57684853    12.43414421
 C     48   1   2     1.329150299606   118.21859035   336.89175220
 C     72  48   1     4.214386475586   110.84252613   349.45848463
 C     73  72  48     2.394244560573    32.18106866   195.06822383
 H     74  73  72     1.077767726867   150.54665078   177.29890927
 C     74  73  72     1.386457266462    30.31909407   178.77556312
 C     49  48  50     1.328176132418    60.85731036   189.44430737
 N      1   2   4     2.117919974701   101.98123719   265.85942011
 C     75  74  73     3.284495384549   115.30655480   106.29538454
 N     79  75  74     1.330985519801    49.62841831    60.79424116
 C     80  79  75     2.403301038612    88.78905464    79.45965932
 H     81  80  79     1.080583381825   147.98065554   179.72138332
 C     78   1   2     1.349034653475   113.59684820   183.24447472
 C     79  75  74     1.391628400926   103.39952498   183.27868608
 H     84  79  75     1.081680152026   120.13244015   129.32257582
 C     78   1   2     1.330977093012   125.80923268   351.87378659
 C     80  79  75     1.339357399376   117.75614720    79.33306888
 C     84  79  75     1.387520661880   118.56913177   309.13188276
 H     88  84  79     1.082297467170   120.75144132   179.98238548
 H     76  74  73     1.081962050848   119.95759575   180.14656841
 H     79  75  74     1.084429878636   114.86125002   316.41885399
 H     73  72  48     1.080918344635   175.92436994    13.99880624
 H     86  78   1     1.082110828634   116.57684984    12.43444634

---------------------------
INTERNAL COORDINATES (A.U.)
---------------------------
 Ni     0   0   0     0.000000000000     0.00000000     0.00000000
 N      1   0   0     3.802010297123     0.00000000     0.00000000
 N      2   1   0     5.049311310776   179.99970161     0.00000000
 C      2   1   3     2.511727015919   118.21856651   272.74376160
 C      4   2   1     7.964012059213   110.84345571    10.53700914
 C      5   4   2     4.524468489740    32.18094657   164.93794347
 H      6   5   4     2.036694839969   150.54697541   182.69907466
 C      6   5   4     2.620025267955    30.31911244   181.22458052
 C      3   2   4     2.509890562900    60.85735270   350.55914252
 N      1   2   4     4.002289266215    78.01864268   355.85946419
 C      7   6   5     6.204864218651   115.32015416   253.72139924
 N     11   7   6     2.515199547493    49.62900419   299.20074318
 C     12  11   7     4.541584559875    88.78898908   280.52427698
 H     13  12  11     2.042007089216   147.98060226   180.27611840
 C     10   1   2     2.549303328045   113.59676143   356.75440185
 C     11   7   6     2.629796534500   103.41018192   176.72554248
 H     16  11   7     2.044079168885   120.13241033   230.68480269
 C     10   1   2     2.515180991395   125.80964631   188.12426173
 C     12  11   7     2.531016969312   117.75596521   280.64925085
 C     16  11   7     2.622034695790   118.56918290    50.87456936
 H     20  16  11     2.045245881930   120.75146643   180.01889695
 H      8   6   5     2.044611862676   119.95758510   179.85359619
 H     11   7   6     2.049275442298   114.84894515    43.58560713
 H      5   4   2     2.042639637291   175.92455084   346.00314766
 H     18  10   1     2.044893069531   116.57687068   347.56680982
 C      2   1  10     2.511727409157   118.21855650   175.85908821
 C     26   2   1     7.964014623759   110.84335317    10.53762263
 C     27  26   2     4.524468303522    32.18096372   164.93703758
 H     28  27  26     2.036693966964   150.54696903   182.69916417
 C     28  27  26     2.620025259478    30.31911097   181.22446077
 C      3   2   4     2.509890909052    60.85736062   170.55901726
 N      1   2   4     4.002289256734    78.01864920   175.85940303
 C     29  28  27     6.205072493198   115.31831118   253.71986059
 N     33  29  28     2.515199456151    49.62881790   299.20117936
 C     34  33  29     4.541584275926    88.78899130   280.52569968
 H     35  34  33     2.042006966680   147.98060945   180.27634342
 C     32   1   2     2.549303908306   113.59675002   356.75444660
 C     33  29  28     2.629796570385   103.40929691   176.72517427
 H     38  33  29     2.044079198835   120.13241415   230.68402305
 C     32   1   2     2.515181096390   125.80961625   188.12452093
 C     34  33  29     2.531017374961   117.75597684   280.65084350
 C     38  33  29     2.622034640348   118.56918048    50.87388586
 H     42  38  33     2.045245875392   120.75145248   180.01873056
 H     30  28  27     2.044611888747   119.95758581   179.85354940
 H     33  29  28     2.049275503197   114.85002139    43.58517446
 H     27  26   2     2.042639589800   175.92452762   346.00204844
 H     40  32   1     2.044893087446   116.57686332   347.56660090
 N      1   2   4     3.802009734383   179.99986501   293.11135681
 N     48   1   2     5.049306173363   179.99971385    77.11193721
 C     48   1   2     2.511729463913   118.21855031   156.89149523
 C     50  48   1     7.964031286631   110.84272440   349.45915916
 C     51  50  48     4.524466933342    32.18104029   195.06689626
 H     52  51  50     2.036687647937   150.54671896   177.29917350
 C     52  51  50     2.620024731653    30.31909633   178.77546423
 C     49  48  50     2.509888394243    60.85728990     9.44423512
 N      1   2   4     4.002288782110   101.98145923    85.85953787
 C     53  52  51     6.206457986667   115.30932643   106.29264835
 N     57  53  52     2.515198498860    49.62849838    60.79501957
 C     58  57  53     4.541581370871    88.78903854    79.46228847
 H     59  58  57     2.042006727956   147.98063674   179.72178610
 C     56   1   2     2.549305494013   113.59683315   183.24452345
 C     57  53  52     2.629796558890   103.40130054   183.27793173
 H     62  57  53     2.044079247378   120.13243166   129.32137372
 C     56   1   2     2.515181856859   125.80934196   351.87420739
 C     58  57  53     2.531018211769   117.75611369    79.33601828
 C     62  57  53     2.622034107430   118.56914143   309.13085306
 H     66  62  57     2.045245815718   120.75145120   179.98210292
 H     54  52  51     2.044611950827   119.95759403   180.14654767
 H     57  53  52     2.049275429324   114.85922483   316.41807303
 H     51  50  48     2.042639602919   175.92440365    13.99794288
 H     64  56   1     2.044893128208   116.57684853    12.43414421
 C     48   1   2     2.511730057074   118.21859035   336.89175220
 C     72  48   1     7.964036261359   110.84252613   349.45848463
 C     73  72  48     4.524466517114    32.18106866   195.06822383
 H     74  73  72     2.036685839758   150.54665078   177.29890927
 C     74  73  72     2.620024529998    30.31909407   178.77556312
 C     49  48  50     2.509889147881    60.85731036   189.44430737
 N      1   2   4     4.002288725747   101.98123719   265.85942011
 C     75  74  73     6.206796764925   115.30655480   106.29538454
 N     79  75  74     2.515198120639    49.62841831    60.79424116
 C     80  79  75     4.541580780345    88.78905464    79.45965932
 H     81  80  79     2.042006656516   147.98065554   179.72138332
 C     78   1   2     2.549306040238   113.59684820   183.24447472
 C     79  75  74     2.629796557937   103.39952498   183.27868608
 H     84  79  75     2.044079251828   120.13244015   129.32257582
 C     78   1   2     2.515182196315   125.80923268   351.87378659
 C     80  79  75     2.531018680262   117.75614720    79.33306888
 C     84  79  75     2.622034056109   118.56913177   309.13188276
 H     88  84  79     2.045245808389   120.75144132   179.98238548
 H     76  74  73     2.044611963398   119.95759575   180.14656841
 H     79  75  74     2.049275482063   114.86125002   316.41885399
 H     73  72  48     2.042639644491   175.92436994    13.99880624
 H     86  78   1     2.044893112670   116.57684984    12.43444634

---------------------
BASIS SET INFORMATION
---------------------
There are 4 groups of distinct atoms

 Group   1 Type Ni  : 17s11p7d1f contracted to 6s4p4d1f pattern {842111/6311/4111/1}
 Group   2 Type N   : 11s6p2d1f contracted to 5s3p2d1f pattern {62111/411/11/1}
 Group   3 Type C   : 11s6p2d1f contracted to 5s3p2d1f pattern {62111/411/11/1}
 Group   4 Type H   : 5s1p contracted to 3s1p pattern {311/1}

Atom   0Ni   basis set group =>   1
Atom   1N    basis set group =>   2
Atom   2N    basis set group =>   2
Atom   3C    basis set group =>   3
Atom   4C    basis set group =>   3
Atom   5C    basis set group =>   3
Atom   6H    basis set group =>   4
Atom   7C    basis set group =>   3
Atom   8C    basis set group =>   3
Atom   9N    basis set group =>   2
Atom  10C    basis set group =>   3
Atom  11N    basis set group =>   2
Atom  12C    basis set group =>   3
Atom  13H    basis set group =>   4
Atom  14C    basis set group =>   3
Atom  15C    basis set group =>   3
Atom  16H    basis set group =>   4
Atom  17C    basis set group =>   3
Atom  18C    basis set group =>   3
Atom  19C    basis set group =>   3
Atom  20H    basis set group =>   4
Atom  21H    basis set group =>   4
Atom  22H    basis set group =>   4
Atom  23H    basis set group =>   4
Atom  24H    basis set group =>   4
Atom  25C    basis set group =>   3
Atom  26C    basis set group =>   3
Atom  27C    basis set group =>   3
Atom  28H    basis set group =>   4
Atom  29C    basis set group =>   3
Atom  30C    basis set group =>   3
Atom  31N    basis set group =>   2
Atom  32C    basis set group =>   3
Atom  33N    basis set group =>   2
Atom  34C    basis set group =>   3
Atom  35H    basis set group =>   4
Atom  36C    basis set group =>   3
Atom  37C    basis set group =>   3
Atom  38H    basis set group =>   4
Atom  39C    basis set group =>   3
Atom  40C    basis set group =>   3
Atom  41C    basis set group =>   3
Atom  42H    basis set group =>   4
Atom  43H    basis set group =>   4
Atom  44H    basis set group =>   4
Atom  45H    basis set group =>   4
Atom  46H    basis set group =>   4
Atom  47N    basis set group =>   2
Atom  48N    basis set group =>   2
Atom  49C    basis set group =>   3
Atom  50C    basis set group =>   3
Atom  51C    basis set group =>   3
Atom  52H    basis set group =>   4
Atom  53C    basis set group =>   3
Atom  54C    basis set group =>   3
Atom  55N    basis set group =>   2
Atom  56C    basis set group =>   3
Atom  57N    basis set group =>   2
Atom  58C    basis set group =>   3
Atom  59H    basis set group =>   4
Atom  60C    basis set group =>   3
Atom  61C    basis set group =>   3
Atom  62H    basis set group =>   4
Atom  63C    basis set group =>   3
Atom  64C    basis set group =>   3
Atom  65C    basis set group =>   3
Atom  66H    basis set group =>   4
Atom  67H    basis set group =>   4
Atom  68H    basis set group =>   4
Atom  69H    basis set group =>   4
Atom  70H    basis set group =>   4
Atom  71C    basis set group =>   3
Atom  72C    basis set group =>   3
Atom  73C    basis set group =>   3
Atom  74H    basis set group =>   4
Atom  75C    basis set group =>   3
Atom  76C    basis set group =>   3
Atom  77N    basis set group =>   2
Atom  78C    basis set group =>   3
Atom  79N    basis set group =>   2
Atom  80C    basis set group =>   3
Atom  81H    basis set group =>   4
Atom  82C    basis set group =>   3
Atom  83C    basis set group =>   3
Atom  84H    basis set group =>   4
Atom  85C    basis set group =>   3
Atom  86C    basis set group =>   3
Atom  87C    basis set group =>   3
Atom  88H    basis set group =>   4
Atom  89H    basis set group =>   4
Atom  90H    basis set group =>   4
Atom  91H    basis set group =>   4
Atom  92H    basis set group =>   4
---------------------------------
AUXILIARY/J BASIS SET INFORMATION
---------------------------------
There are 4 groups of distinct atoms

 Group   1 Type Ni  : 19s5p5d3f3g contracted to 8s5p5d2f3g pattern {121111111/11111/11111/21/111}
 Group   2 Type N   : 12s5p4d2f1g contracted to 6s4p3d1f1g pattern {711111/2111/211/2/1}
 Group   3 Type C   : 12s5p4d2f1g contracted to 6s4p3d1f1g pattern {711111/2111/211/2/1}
 Group   4 Type H   : 5s2p1d contracted to 3s1p1d pattern {311/2/1}

Atom   0Ni   basis set group =>   1
Atom   1N    basis set group =>   2
Atom   2N    basis set group =>   2
Atom   3C    basis set group =>   3
Atom   4C    basis set group =>   3
Atom   5C    basis set group =>   3
Atom   6H    basis set group =>   4
Atom   7C    basis set group =>   3
Atom   8C    basis set group =>   3
Atom   9N    basis set group =>   2
Atom  10C    basis set group =>   3
Atom  11N    basis set group =>   2
Atom  12C    basis set group =>   3
Atom  13H    basis set group =>   4
Atom  14C    basis set group =>   3
Atom  15C    basis set group =>   3
Atom  16H    basis set group =>   4
Atom  17C    basis set group =>   3
Atom  18C    basis set group =>   3
Atom  19C    basis set group =>   3
Atom  20H    basis set group =>   4
Atom  21H    basis set group =>   4
Atom  22H    basis set group =>   4
Atom  23H    basis set group =>   4
Atom  24H    basis set group =>   4
Atom  25C    basis set group =>   3
Atom  26C    basis set group =>   3
Atom  27C    basis set group =>   3
Atom  28H    basis set group =>   4
Atom  29C    basis set group =>   3
Atom  30C    basis set group =>   3
Atom  31N    basis set group =>   2
Atom  32C    basis set group =>   3
Atom  33N    basis set group =>   2
Atom  34C    basis set group =>   3
Atom  35H    basis set group =>   4
Atom  36C    basis set group =>   3
Atom  37C    basis set group =>   3
Atom  38H    basis set group =>   4
Atom  39C    basis set group =>   3
Atom  40C    basis set group =>   3
Atom  41C    basis set group =>   3
Atom  42H    basis set group =>   4
Atom  43H    basis set group =>   4
Atom  44H    basis set group =>   4
Atom  45H    basis set group =>   4
Atom  46H    basis set group =>   4
Atom  47N    basis set group =>   2
Atom  48N    basis set group =>   2
Atom  49C    basis set group =>   3
Atom  50C    basis set group =>   3
Atom  51C    basis set group =>   3
Atom  52H    basis set group =>   4
Atom  53C    basis set group =>   3
Atom  54C    basis set group =>   3
Atom  55N    basis set group =>   2
Atom  56C    basis set group =>   3
Atom  57N    basis set group =>   2
Atom  58C    basis set group =>   3
Atom  59H    basis set group =>   4
Atom  60C    basis set group =>   3
Atom  61C    basis set group =>   3
Atom  62H    basis set group =>   4
Atom  63C    basis set group =>   3
Atom  64C    basis set group =>   3
Atom  65C    basis set group =>   3
Atom  66H    basis set group =>   4
Atom  67H    basis set group =>   4
Atom  68H    basis set group =>   4
Atom  69H    basis set group =>   4
Atom  70H    basis set group =>   4
Atom  71C    basis set group =>   3
Atom  72C    basis set group =>   3
Atom  73C    basis set group =>   3
Atom  74H    basis set group =>   4
Atom  75C    basis set group =>   3
Atom  76C    basis set group =>   3
Atom  77N    basis set group =>   2
Atom  78C    basis set group =>   3
Atom  79N    basis set group =>   2
Atom  80C    basis set group =>   3
Atom  81H    basis set group =>   4
Atom  82C    basis set group =>   3
Atom  83C    basis set group =>   3
Atom  84H    basis set group =>   4
Atom  85C    basis set group =>   3
Atom  86C    basis set group =>   3
Atom  87C    basis set group =>   3
Atom  88H    basis set group =>   4
Atom  89H    basis set group =>   4
Atom  90H    basis set group =>   4
Atom  91H    basis set group =>   4
Atom  92H    basis set group =>   4
---------------------------------
AUXILIARY/C BASIS SET INFORMATION
---------------------------------
There are 4 groups of distinct atoms

 Group   1 Type Ni  : 11s9p8d6f5g2h contracted to 9s8p8d6f5g2h pattern {311111111/21111111/11111111/111111/11111/11}
 Group   2 Type N   : 8s6p5d3f1g contracted to 8s6p4d3f1g pattern {11111111/111111/2111/111/1}
 Group   3 Type C   : 8s6p5d3f1g contracted to 8s6p4d3f1g pattern {11111111/111111/2111/111/1}
 Group   4 Type H   : 4s3p2d contracted to 4s2p1d pattern {1111/21/2}

Atom   0Ni   basis set group =>   1
Atom   1N    basis set group =>   2
Atom   2N    basis set group =>   2
Atom   3C    basis set group =>   3
Atom   4C    basis set group =>   3
Atom   5C    basis set group =>   3
Atom   6H    basis set group =>   4
Atom   7C    basis set group =>   3
Atom   8C    basis set group =>   3
Atom   9N    basis set group =>   2
Atom  10C    basis set group =>   3
Atom  11N    basis set group =>   2
Atom  12C    basis set group =>   3
Atom  13H    basis set group =>   4
Atom  14C    basis set group =>   3
Atom  15C    basis set group =>   3
Atom  16H    basis set group =>   4
Atom  17C    basis set group =>   3
Atom  18C    basis set group =>   3
Atom  19C    basis set group =>   3
Atom  20H    basis set group =>   4
Atom  21H    basis set group =>   4
Atom  22H    basis set group =>   4
Atom  23H    basis set group =>   4
Atom  24H    basis set group =>   4
Atom  25C    basis set group =>   3
Atom  26C    basis set group =>   3
Atom  27C    basis set group =>   3
Atom  28H    basis set group =>   4
Atom  29C    basis set group =>   3
Atom  30C    basis set group =>   3
Atom  31N    basis set group =>   2
Atom  32C    basis set group =>   3
Atom  33N    basis set group =>   2
Atom  34C    basis set group =>   3
Atom  35H    basis set group =>   4
Atom  36C    basis set group =>   3
Atom  37C    basis set group =>   3
Atom  38H    basis set group =>   4
Atom  39C    basis set group =>   3
Atom  40C    basis set group =>   3
Atom  41C    basis set group =>   3
Atom  42H    basis set group =>   4
Atom  43H    basis set group =>   4
Atom  44H    basis set group =>   4
Atom  45H    basis set group =>   4
Atom  46H    basis set group =>   4
Atom  47N    basis set group =>   2
Atom  48N    basis set group =>   2
Atom  49C    basis set group =>   3
Atom  50C    basis set group =>   3
Atom  51C    basis set group =>   3
Atom  52H    basis set group =>   4
Atom  53C    basis set group =>   3
Atom  54C    basis set group =>   3
Atom  55N    basis set group =>   2
Atom  56C    basis set group =>   3
Atom  57N    basis set group =>   2
Atom  58C    basis set group =>   3
Atom  59H    basis set group =>   4
Atom  60C    basis set group =>   3
Atom  61C    basis set group =>   3
Atom  62H    basis set group =>   4
Atom  63C    basis set group =>   3
Atom  64C    basis set group =>   3
Atom  65C    basis set group =>   3
Atom  66H    basis set group =>   4
Atom  67H    basis set group =>   4
Atom  68H    basis set group =>   4
Atom  69H    basis set group =>   4
Atom  70H    basis set group =>   4
Atom  71C    basis set group =>   3
Atom  72C    basis set group =>   3
Atom  73C    basis set group =>   3
Atom  74H    basis set group =>   4
Atom  75C    basis set group =>   3
Atom  76C    basis set group =>   3
Atom  77N    basis set group =>   2
Atom  78C    basis set group =>   3
Atom  79N    basis set group =>   2
Atom  80C    basis set group =>   3
Atom  81H    basis set group =>   4
Atom  82C    basis set group =>   3
Atom  83C    basis set group =>   3
Atom  84H    basis set group =>   4
Atom  85C    basis set group =>   3
Atom  86C    basis set group =>   3
Atom  87C    basis set group =>   3
Atom  88H    basis set group =>   4
Atom  89H    basis set group =>   4
Atom  90H    basis set group =>   4
Atom  91H    basis set group =>   4
Atom  92H    basis set group =>   4
------------------------------------------------------------------------------
                           ORCA GTO INTEGRAL CALCULATION
                           -- RI-GTO INTEGRALS CHOSEN --
------------------------------------------------------------------------------
------------------------------------------------------------------------------
                   ___                                                        
                  /   \      - P O W E R E D   B Y -                         
                 /     \                                                     
                 |  |  |   _    _      __       _____    __    __             
                 |  |  |  | |  | |    /  \     |  _  \  |  |  /  |          
                  \  \/   | |  | |   /    \    | | | |  |  | /  /          
                 / \  \   | |__| |  /  /\  \   | |_| |  |  |/  /          
                |  |  |   |  __  | /  /__\  \  |    /   |      \           
                |  |  |   | |  | | |   __   |  |    \   |  |\   \          
                \     /   | |  | | |  |  |  |  | |\  \  |  | \   \       
                 \___/    |_|  |_| |__|  |__|  |_| \__\ |__|  \__/        
                                                                              
                      - O R C A' S   B I G   F R I E N D -                    
                                      &                                       
                       - I N T E G R A L  F E E D E R -                       
                                                                              
 v1 FN, 2020, v2 2021                                                         
------------------------------------------------------------------------------


Reading SHARK input file /scratch/dca0099.321671/Energy_T0_def_pyrazine_Nickel.SHARKINP.tmp ... ok
----------------------
SHARK INTEGRAL PACKAGE
----------------------

Number of atoms                             ...     93
Number of basis functions                   ...   2097
Number of shells                            ...    803
Maximum angular momentum                    ...      3
Integral batch strategy                     ... SHARK/LIBINT Hybrid
RI-J (if used) integral strategy            ... SPLIT-RIJ (Revised 2003 algorithm where possible)
Printlevel                                  ...      1
Contraction scheme used                     ... SEGMENTED contraction
Coulomb Range Separation                    ... NOT USED
Exchange Range Separation                   ... NOT USED
Finite Nucleus Model                        ... NOT USED
Auxiliary Coulomb fitting basis             ... AVAILABLE
   # of basis functions in Aux-J            ...   3381
   # of shells in Aux-J                     ...   1083
   Maximum angular momentum in Aux-J        ...      4
Auxiliary J/K fitting basis                 ... NOT available
Auxiliary Correlation fitting basis         ... AVAILABLE
   # of basis functions in Aux-C            ...   5222
   # of shells in Aux-C                     ...   1582
   Maximum angular momentum in Aux-C        ...      5
Auxiliary 'external' fitting basis          ... NOT available
Integral threshold                          ...     2.500000e-11
Primitive cut-off                           ...     2.500000e-12
Primitive pair pre-selection threshold      ...     2.500000e-12

Calculating pre-screening integrals         ... done (  2.0 sec) Dimension = 803
Organizing shell pair data                  ... done (  2.6 sec)
Shell pair information
Total number of shell pairs                 ...    322806
Shell pairs after pre-screening             ...    155459
Total number of primitive shell pairs       ...   1021781
Primitive shell pairs kept                  ...    293194
          la=0 lb=0:  36851 shell pairs
          la=1 lb=0:  45584 shell pairs
          la=1 lb=1:  14067 shell pairs
          la=2 lb=0:  22104 shell pairs
          la=2 lb=1:  14146 shell pairs
          la=2 lb=2:   3415 shell pairs
          la=3 lb=0:   9562 shell pairs
          la=3 lb=1:   6304 shell pairs
          la=3 lb=2:   2836 shell pairs
          la=3 lb=3:    590 shell pairs

Calculating one electron integrals          ... done (  2.9 sec)
Calculating RI/J V-Matrix + Cholesky decomp.... done (  1.0 sec)
Calculating RI/C V-Matrix + Cholesky decomp.... done (  2.7 sec)
Calculating Nuclear repulsion               ... done (  0.0 sec) ENN=   9637.675338899788 Eh

SHARK setup successfully completed in  16.3 seconds

Maximum memory used throughout the entire GTOINT-calculation: 1897.5 MB
-------------------------------------------------------------------------------
                                 ORCA SCF
-------------------------------------------------------------------------------

------------
SCF SETTINGS
------------
Hamiltonian:
 Ab initio Hamiltonian  Method          .... Hartree-Fock(GTOs)
 RI-approximation to the Coulomb term is turned on
   Number of AuxJ basis functions       .... 3381
   RIJ-COSX (HFX calculated with COS-X)).... on


General Settings:
 Integral files         IntName         .... /scratch/dca0099.321671/Energy_T0_def_pyrazine_Nickel
 Hartree-Fock type      HFTyp           .... UHF
 Total Charge           Charge          ....    0
 Multiplicity           Mult            ....    3
 Number of Electrons    NEL             ....  432
 Basis Dimension        Dim             .... 2097
 Nuclear Repulsion      ENuc            ....   9637.6753388998 Eh

Convergence Acceleration:
 DIIS                   CNVDIIS         .... on
   Start iteration      DIISMaxIt       ....    12
   Startup error        DIISStart       ....  0.200000
   # of expansion vecs  DIISMaxEq       ....     5
   Bias factor          DIISBfac        ....   1.050
   Max. coefficient     DIISMaxC        ....  10.000
 Trust-Rad. Augm. Hess. CNVTRAH         .... auto
   Auto Start mean grad. ratio tolernc. ....  1.125000
   Auto Start start iteration           ....    20
   Auto Start num. interpolation iter.  ....    10
   Max. Number of Micro iterations      ....    16
   Max. Number of Macro iterations      .... Maxiter - #DIIS iter
   Number of Davidson start vectors     ....     2
   Converg. threshold I  (grad. norm)   ....   1.000e-05
   Converg. threshold II (energy diff.) ....   1.000e-08
   Grad. Scal. Fac. for Micro threshold ....   0.100
   Minimum threshold for Micro iter.    ....   0.010
   NR start threshold (gradient norm)   ....   0.001
   Initial trust radius                 ....   0.400
   Minimum AH scaling param. (alpha)    ....   1.000
   Maximum AH scaling param. (alpha)    .... 1000.000
   Orbital update algorithm             .... Taylor
   White noise on init. David. guess    .... on
   Maximum white noise                  ....   0.010
   Quad. conv. algorithm                .... NR
 SOSCF                  CNVSOSCF        .... off
 Level Shifting         CNVShift        .... on
   Level shift para.    LevelShift      ....    0.2500
   Turn off err/grad.   ShiftErr        ....    0.0010
 Zerner damping         CNVZerner       .... off
 Static damping         CNVDamp         .... on
   Fraction old density DampFac         ....    0.7000
   Max. Damping (<1)    DampMax         ....    0.9800
   Min. Damping (>=0)   DampMin         ....    0.0000
   Turn off err/grad.   DampErr         ....    0.1000
 Fernandez-Rico         CNVRico         .... off

SCF Procedure:
 Maximum # iterations   MaxIter         ....   125
 SCF integral mode      SCFMode         .... Direct
   Integral package                     .... SHARK and LIBINT hybrid scheme
 Reset frequency        DirectResetFreq ....    20
 Integral Threshold     Thresh          ....  2.500e-11 Eh
 Primitive CutOff       TCut            ....  2.500e-12 Eh

Convergence Tolerance:
 Convergence Check Mode ConvCheckMode   .... Total+1el-Energy
 Convergence forced     ConvForced      .... 1
 Energy Change          TolE            ....  1.000e-08 Eh
 1-El. energy change                    ....  1.000e-05 Eh
 DIIS Error             TolErr          ....  5.000e-07


Diagonalization of the overlap matrix:
Smallest eigenvalue                        ... 9.959e-06
Time for diagonalization                   ...    2.592 sec
Threshold for overlap eigenvalues          ... 1.000e-08
Number of eigenvalues below threshold      ... 0
Time for construction of square roots      ...    0.985 sec
Total time needed                          ...    3.610 sec

Time for model grid setup =    9.988 sec

------------------------------
INITIAL GUESS: MODEL POTENTIAL
------------------------------
Loading Hartree-Fock densities                     ... done
Calculating cut-offs                               ... done
Initializing the effective Hamiltonian             ... done
Setting up the integral package (SHARK)            ... done
Starting the Coulomb interaction                   ... done (  42.9 sec)
Reading the grid                                   ... done
Mapping shells                                     ... done
Starting the XC term evaluation                    ... done (   6.1 sec)
Transforming the Hamiltonian                       ... done (   1.0 sec)
Diagonalizing the Hamiltonian                      ... done (   1.8 sec)
Back transforming the eigenvectors                 ... done (   0.4 sec)
Now organizing SCF variables                       ... done
                      ------------------
                      INITIAL GUESS DONE (  62.7 sec)
                      ------------------
--------------------
COSX GRID GENERATION
--------------------

GRIDX 1
-------
General Integration Accuracy     IntAcc      ... 3.816
Radial Grid Type                 RadialGrid  ... OptM3 with GC (2021)
Angular Grid (max. ang.)         AngularGrid ... 1 (Lebedev-50)
Angular grid pruning method      GridPruning ... 4 (adaptive)
Weight generation scheme         WeightScheme... Becke
Basis function cutoff            BFCut       ... 1.0000e-11
Integration weight cutoff        WCut        ... 1.0000e-14
Angular grids for H and He will be reduced by one unit
Partially contracted basis set               ... on
Rotationally invariant grid construction     ... off

Total number of grid points                  ...    58862
Total number of batches                      ...      960
Average number of points per batch           ...       61
Average number of grid points per atom       ...      633
UseSFitting                                  ... on

GRIDX 2
-------
General Integration Accuracy     IntAcc      ... 4.020
Radial Grid Type                 RadialGrid  ... OptM3 with GC (2021)
Angular Grid (max. ang.)         AngularGrid ... 2 (Lebedev-110)
Angular grid pruning method      GridPruning ... 4 (adaptive)
Weight generation scheme         WeightScheme... Becke
Basis function cutoff            BFCut       ... 1.0000e-11
Integration weight cutoff        WCut        ... 1.0000e-14
Angular grids for H and He will be reduced by one unit
Partially contracted basis set               ... on
Rotationally invariant grid construction     ... off

Total number of grid points                  ...   128216
Total number of batches                      ...     2047
Average number of points per batch           ...       62
Average number of grid points per atom       ...     1379
UseSFitting                                  ... on

GRIDX 3
-------
General Integration Accuracy     IntAcc      ... 4.338
Radial Grid Type                 RadialGrid  ... OptM3 with GC (2021)
Angular Grid (max. ang.)         AngularGrid ... 3 (Lebedev-194)
Angular grid pruning method      GridPruning ... 4 (adaptive)
Weight generation scheme         WeightScheme... Becke
Basis function cutoff            BFCut       ... 1.0000e-11
Integration weight cutoff        WCut        ... 1.0000e-14
Angular grids for H and He will be reduced by one unit
Partially contracted basis set               ... on
Rotationally invariant grid construction     ... off

Total number of grid points                  ...   279712
Total number of batches                      ...     4421
Average number of points per batch           ...       63
Average number of grid points per atom       ...     3008
UseSFitting                                  ... on

Time for X-Grid setup             =   46.776 sec


--------------------
CPCM SOLVATION MODEL
--------------------
CPCM parameters:
  Epsilon                                         ...       9.0800
  Refrac                                          ...       1.4240
  Rsolv                                           ...       1.3000
  Surface type                                    ... GAUSSIAN VDW
  Epsilon function type                           ...         CPCM
Radii:
 Radius for Ni used is    3.6963 Bohr (=   1.9560 Ang.)
 Radius for N  used is    3.5149 Bohr (=   1.8600 Ang.)
 Radius for C  used is    3.8550 Bohr (=   2.0400 Ang.)
 Radius for H  used is    2.4944 Bohr (=   1.3200 Ang.)
Calculating surface                               ...        done! (  0.0s)
GEPOL surface points                              ...         4666
GEPOL Volume                                      ...    5977.7461
GEPOL Surface-area                                ...    2745.8598
Calculating surface distance matrix               ...        done! (  0.5s)
Performing Cholesky decomposition & store         ...        done! (  1.3s)
Overall time for CPCM initialization              ...                 1.8s
--------------
SCF ITERATIONS
--------------
ITER       Energy         Delta-E        Max-DP      RMS-DP      [F,P]     Damp
               ***  Starting incremental Fock matrix formation  ***
  0  -3995.0677781625   0.000000000000 0.06220146  0.00029575  0.1892624 0.7000
  1  -3995.8037265050  -0.735948342541 0.05895963  0.00026757  0.1144962 0.7000
                               ***Turning on DIIS***
  2  -3996.2692725492  -0.465546044189 0.15666970  0.00067026  0.0837456 0.0000
  3  -3994.8268114958   1.442461053389 0.03021778  0.00016512  0.0357654 0.0000
  4  -3997.7928516640  -2.966040168120 0.01571354  0.00007708  0.0210469 0.0000
  5  -3997.3026637638   0.490187900140 0.01313135  0.00005592  0.0120240 0.0000
  6  -3997.4524426440  -0.149778880122 0.01103678  0.00004784  0.0132559 0.0000
  7  -3997.2862752671   0.166167376864 0.01139413  0.00004925  0.0045433 0.0000
  8  -3997.3558067522  -0.069531485115 0.01277921  0.00005273  0.0025543 0.0000
  9  -3997.3370074549   0.018799297305 0.01186029  0.00004876  0.0020943 0.0000
 10  -3997.3378907274  -0.000883272457 0.00971264  0.00003857  0.0013358 0.0000
 11  -3997.3516117948  -0.013721067496 0.00670864  0.00002538  0.0010249 0.0000
 12  -3997.3636939700  -0.012082175193 0.00439458  0.00001658  0.0010019 0.0000
 13  -3997.3508696007   0.012824369389 0.00402116  0.00001625  0.0009850 0.0000
               *** Restarting incremental Fock matrix formation ***
                                   *** Resetting DIIS ***
 14  -3997.3590074629  -0.008137862219 0.00728052  0.00005557  0.0010064 0.0000
 15  -3997.3617745875  -0.002767124663 0.00246677  0.00001251  0.0009979 0.0000
 16  -3997.3539993376   0.007775249938 0.00017809  0.00000060  0.0010184 0.0000
 17  -3997.3528938234   0.001105514165 0.00013171  0.00000044  0.0010213 0.0000
 18  -3997.3523433052   0.000550518246 0.00006248  0.00000023  0.0010208 0.0000
 19  -3997.3408919332   0.011451372029 0.00021983  0.00000129  0.0010194 0.0000

 WARNING: the maximum gradient error descreased on average only by a factor   1.0
          during the last 20 iterations

                      *** Initiating the TRAH-SCF procedure ***


TRAH GRIDX
----------

General Integration Accuracy     IntAcc      ... 3.067
Radial Grid Type                 RadialGrid  ... OptM3 with GC (2021)
Angular Grid (max. ang.)         AngularGrid ... 1 (Lebedev-50)
Angular grid pruning method      GridPruning ... 4 (adaptive)
Weight generation scheme         WeightScheme... Becke
Basis function cutoff            BFCut       ... 1.0000e-11
Integration weight cutoff        WCut        ... 1.0000e-14
Angular grids for H and He will be reduced by one unit
Partially contracted basis set               ... on
Rotationally invariant grid construction     ... off

Total number of grid points                  ...    31752
Total number of batches                      ...      546
Average number of points per batch           ...       58
Average number of grid points per atom       ...      341

 --------------------------------------------------------------------------------------------
   Iter.        energy            ||Error||_2        Shift      TRadius  Mac/Mic        Rej.
 --------------------------------------------------------------------------------------------
    0      -3997.359378128194     8.066686e-03                     0.400 (TRAH MAcro)   No
    0     dE    -3.292270e-04     5.180663e-02    -3.2868e-04      0.041 (TRAH MIcro)
    0     dE    -6.236912e-03     1.286722e-01    -1.9716e-02      0.400 (TRAH MIcro)
    0     dE    -9.554784e-03     2.776607e-02    -4.0806e-02      0.400 (TRAH MIcro)
    0     dE    -9.951089e-03     1.715406e-02    -4.3503e-02      0.400 (TRAH MIcro)
    0     dE    -1.012366e-02     1.669953e-02    -4.5289e-02      0.398 (TRAH MIcro)
    0     dE    -6.730625e-03     5.212074e-03    -5.2246e-02      0.295 (TRAH MIcro)
    0     dE    -6.807072e-03     6.926629e-03    -5.2431e-02      0.297 (TRAH MIcro)
    0     dE    -6.938397e-03     6.762856e-03    -5.2665e-02      0.300 (TRAH MIcro)
    0     dE    -7.147972e-03     7.409216e-03    -5.2923e-02      0.306 (TRAH MIcro)
    0     dE    -7.445750e-03     6.431861e-03    -5.3191e-02      0.314 (TRAH MIcro)
    0     dE    -7.656387e-03     4.402533e-03    -5.3350e-02      0.319 (TRAH MIcro)
    0     dE    -7.812309e-03     4.655300e-03    -5.3450e-02      0.323 (TRAH MIcro)
    0     dE    -8.148736e-03     6.852610e-03    -5.3619e-02      0.332 (TRAH MIcro)
    0     dE    -8.678851e-03     5.197982e-03    -5.3822e-02      0.346 (TRAH MIcro)
    1      -3997.367623187701     1.787400e-02                     0.480 (TRAH MAcro)   No
    1     dE    -9.097141e-05     1.375885e-01    -9.0969e-05      0.005 (TRAH MIcro)
    1     dE    -1.276727e-02     1.119409e-01    -2.1212e-02      0.480 (TRAH MIcro)
    1     dE    -1.981285e-02     8.715545e-02    -5.1534e-02      0.480 (TRAH MIcro)
    1     dE    -1.837459e-02     3.673831e-02    -6.1868e-02      0.427 (TRAH MIcro)
    1     dE    -1.884959e-02     1.727219e-02    -6.2621e-02      0.432 (TRAH MIcro)
    1     dE    -1.933973e-02     2.508560e-02    -6.3236e-02      0.437 (TRAH MIcro)
    1     dE    -1.998410e-02     1.127147e-02    -6.3768e-02      0.446 (TRAH MIcro)
    1     dE    -2.081640e-02     1.975950e-02    -6.4263e-02      0.457 (TRAH MIcro)
    1     dE    -2.131623e-02     6.299392e-03    -6.4511e-02      0.464 (TRAH MIcro)
    1     dE    -2.150945e-02     6.364028e-03    -6.4589e-02      0.467 (TRAH MIcro)
    1     dE    -2.162542e-02     3.101167e-03    -6.4626e-02      0.469 (TRAH MIcro)
    1     dE    -2.168829e-02     2.652590e-03    -6.4644e-02      0.470 (TRAH MIcro)
    1     dE    -2.172257e-02     1.715681e-03    -6.4655e-02      0.470 (TRAH MIcro)
    2      -3997.387011951063     2.450995e-02                     0.576 (TRAH MAcro)   No
    2     dE    -1.471626e-03     4.417197e-01    -1.4664e-03      0.060 (TRAH MIcro)
    2     dE    -2.240184e-02     1.277394e-01    -2.6744e-02      0.576 (TRAH MIcro)
    2     dE    -2.645187e-02     1.162473e-01    -3.9107e-02      0.576 (TRAH MIcro)
    2     dE    -2.824846e-02     3.978254e-02    -4.4810e-02      0.576 (TRAH MIcro)
    2     dE    -2.673848e-02     3.721891e-02    -4.8810e-02      0.540 (TRAH MIcro)
    2     dE    -2.759128e-02     4.462066e-02    -4.9391e-02      0.550 (TRAH MIcro)
    2     dE    -2.824496e-02     2.319834e-02    -4.9698e-02      0.559 (TRAH MIcro)
    2     dE    -2.856158e-02     1.361079e-02    -4.9814e-02      0.563 (TRAH MIcro)
    2     dE    -2.867056e-02     7.726062e-03    -4.9854e-02      0.565 (TRAH MIcro)
    2     dE    -2.870773e-02     5.229233e-03    -4.9869e-02      0.565 (TRAH MIcro)
    2     dE    -2.874429e-02     2.266376e-03    -4.9880e-02      0.566 (TRAH MIcro)
    3      -3997.411716459385     1.995888e-02                     0.691 (TRAH MAcro)   No
    3     dE    -2.422695e-04     2.320175e-01    -2.4223e-04      0.012 (TRAH MIcro)
    3     dE    -4.362368e-03     1.033442e-01    -4.1512e-03      0.226 (TRAH MIcro)
    3     dE    -8.446848e-03     3.754778e-02    -7.2422e-03      0.408 (TRAH MIcro)
    3     dE    -9.609478e-03     4.393978e-02    -7.9753e-03      0.453 (TRAH MIcro)
    3     dE    -9.885680e-03     1.221178e-02    -8.1459e-03      0.462 (TRAH MIcro)
    3     dE    -9.996130e-03     1.780365e-02    -8.2100e-03      0.466 (TRAH MIcro)
    3     dE    -1.011000e-02     1.108233e-02    -8.2701e-03      0.472 (TRAH MIcro)
    3     dE    -1.023142e-02     1.320785e-02    -8.3276e-03      0.478 (TRAH MIcro)
    3     dE    -1.033273e-02     5.589558e-03    -8.3727e-03      0.484 (TRAH MIcro)
    3     dE    -1.037910e-02     4.080077e-03    -8.3917e-03      0.487 (TRAH MIcro)
    3     dE    -1.039975e-02     2.678441e-03    -8.3993e-03      0.488 (TRAH MIcro)
    3     dE    -1.041367e-02     2.699368e-03    -8.4039e-03      0.489 (TRAH MIcro)
    3     dE    -1.042013e-02     1.136063e-03    -8.4062e-03      0.489 (TRAH MIcro)
    4      -3997.418452981288     1.112211e-02                     0.691 (TRAH MAcro)   No
    4     dE    -1.315249e-04     2.438521e-02    -1.3151e-04      0.012 (TRAH MIcro)
    4     dE    -5.452325e-04     1.981848e-02    -5.4342e-04      0.058 (TRAH MIcro)
    4     dE    -6.830996e-04     1.751425e-02    -6.7923e-04      0.075 (TRAH MIcro)
    4     dE    -8.119784e-04     6.930320e-03    -8.0478e-04      0.095 (TRAH MIcro)
    4     dE    -8.297325e-04     2.874489e-03    -8.2195e-04      0.097 (TRAH MIcro)
    4     dE    -8.342412e-04     1.665217e-03    -8.2631e-04      0.098 (TRAH MIcro)
    4     dE    -8.352429e-04     7.275083e-04    -8.2727e-04      0.098 (TRAH MIcro)
    5      -3997.419335780942     1.164385e-03                     0.829 (TRAH MAcro)   No
    5     dE    -7.437240e-08     3.746578e-03    -7.4390e-08      0.000 (TRAH MIcro)
    5     dE    -5.196302e-06     3.290960e-03    -5.1961e-06      0.006 (TRAH MIcro)
    5     dE    -8.696355e-06     1.555197e-03    -8.6955e-06      0.010 (TRAH MIcro)
    5     dE    -1.084319e-05     1.380671e-03    -1.0841e-05      0.013 (TRAH MIcro)
    5     dE    -1.115144e-05     4.212114e-04    -1.1150e-05      0.013 (TRAH MIcro)
    5     dE    -1.122075e-05     3.497603e-04    -1.1219e-05      0.013 (TRAH MIcro)
    5     dE    -1.124896e-05     1.703591e-04    -1.1247e-05      0.013 (TRAH MIcro)
    5     dE    -1.128322e-05     4.186488e-04    -1.1281e-05      0.013 (TRAH MIcro)
    5     dE    -1.134205e-05     3.518364e-04    -1.1340e-05      0.014 (TRAH MIcro)
    5     dE    -1.142017e-05     4.640417e-04    -1.1418e-05      0.014 (TRAH MIcro)
    5     dE    -1.148311e-05     2.192093e-04    -1.1481e-05      0.014 (TRAH MIcro)
    5     dE    -1.152207e-05     2.445889e-04    -1.1520e-05      0.014 (TRAH MIcro)
    5     dE    -1.155758e-05     1.640441e-04    -1.1555e-05      0.015 (TRAH MIcro)
    5     dE    -1.158080e-05     1.859171e-04    -1.1578e-05      0.015 (TRAH MIcro)
    6      -3997.419347481974     1.870193e-04                           (NR   MAcro)
    6     dE    -7.685883e-09     6.758033e-05                           (NR   MIcro)
    6     dE    -1.235932e-08     1.081002e-04                           (NR   MIcro)
    6     dE    -1.460752e-08     4.916108e-05                           (NR   MIcro)
    6     dE    -1.563434e-08     5.745991e-05                           (NR   MIcro)
    6     dE    -1.619662e-08     2.524929e-05                           (NR   MIcro)
    6     dE    -1.661800e-08     3.592616e-05                           (NR   MIcro)
    6     dE    -1.678715e-08     1.098886e-05                           (NR   MIcro)
    6     dE    -1.688520e-08     2.052251e-05                           (NR   MIcro)
    6     dE    -1.696196e-08     1.605425e-05                           (NR   MIcro)
    6     dE    -1.709064e-08     1.942710e-05                           (NR   MIcro)
    6     dE    -1.725994e-08     2.064556e-05                           (NR   MIcro)
    6     dE    -1.734261e-08     1.076550e-05                           (NR   MIcro)
    6     dE    -1.740641e-08     1.510460e-05                           (NR   MIcro)
    6     dE    -1.745541e-08     6.199415e-06                           (NR   MIcro)
    6     dE    -1.749512e-08     1.261137e-05                           (NR   MIcro)
    7      -3997.419347498444     1.262349e-05                           (NR   MAcro)
    7     dE    -1.955655e-11     3.532765e-06                           (NR   MIcro)
    7     dE    -3.651037e-11     1.046761e-05                           (NR   MIcro)
    7     dE    -5.113611e-11     6.347297e-06                           (NR   MIcro)
    7     dE    -6.191208e-11     6.763758e-06                           (NR   MIcro)
    7     dE    -7.137678e-11     4.841689e-06                           (NR   MIcro)
    7     dE    -7.573999e-11     3.049174e-06                           (NR   MIcro)
    7     dE    -7.793481e-11     3.349137e-06                           (NR   MIcro)
    7     dE    -7.941925e-11     1.874645e-06                           (NR   MIcro)
    7     dE    -8.062807e-11     2.486811e-06                           (NR   MIcro)
    7     dE    -8.176447e-11     3.096763e-06                           (NR   MIcro)
    7     dE    -8.372965e-11     2.995522e-06                           (NR   MIcro)
    7     dE    -8.581976e-11     2.488342e-06                           (NR   MIcro)
[...]
   IBatch   8 (of   9)              ... done (11702.654 sec)
   IBatch   9 (of   9)              ... done ( 2648.114 sec)
Total EXT                           ...       50495.853 sec

---------------------
RI-PNO TRANSFORMATION
---------------------

Total Number of PNOs                   ... 136300
Total Number of IJ-PNOs                ... 132780
Total Number of IP-PNOs                ...  3028
Total Number of PQ-PNOs                ...   492
Total Number of IJ-pairs               ...  3712
Total Number of PI-pairs               ...   145
Total Number of PQ-pairs               ...     4
Average number of PNOs per pair        ...    35
Maximal number of PNOs per pair        ...   177
>> Statistics for ij-pairs..
   #pairs with  1 -  5 PNOs   :    0
   #pairs with  6 - 10 PNOs   :   38
   #pairs with 11 - 15 PNOs   :  400
   #pairs with 16 - 20 PNOs   :  546
   #pairs with 21 - 25 PNOs   :  328
   #pairs with 26 - 30 PNOs   :  324
   #pairs with 31 - 35 PNOs   :  480
   #pairs with 36 - 40 PNOs   :  220
   #pairs with 41 - 45 PNOs   :  351
   #pairs with 46 - 50 PNOs   :  223
   #pairs with 51 - 55 PNOs   :  187
   #pairs with 56 - 60 PNOs   :  261
   #pairs with 61 - 65 PNOs   :   46
   #pairs with 66 - 70 PNOs   :   22
   #pairs with 71 - 75 PNOs   :  168
   #pairs with 76 - 80 PNOs   :   96
   #pairs with 81 - 85 PNOs   :   22
>> Statistics for ip-pairs..
   #pairs with  1 -  5 PNOs   :    0
   #pairs with  6 - 10 PNOs   :   26
   #pairs with 11 - 15 PNOs   :   47
   #pairs with 16 - 20 PNOs   :   19
   #pairs with 21 - 25 PNOs   :   18
   #pairs with 26 - 30 PNOs   :   10
   #pairs with 31 - 35 PNOs   :    1
   #pairs with 36 - 40 PNOs   :    7
   #pairs with 41 - 45 PNOs   :    7
   #pairs with 46 - 50 PNOs   :    4
   #pairs with 56 - 60 PNOs   :    1
   #pairs with 61 - 65 PNOs   :    1
   #pairs with 66 - 70 PNOs   :    2
   #pairs with 71 - 75 PNOs   :    1
   #pairs with 76 - 80 PNOs   :    1
>> Statistics for pq-pairs..
   #pairs with  1 -  5 PNOs   :    0
   #pairs with  6 - 10 PNOs   :    0
   #pairs with 11 - 15 PNOs   :    0
   #pairs with 16 - 20 PNOs   :    0
   #pairs with 21 - 25 PNOs   :    0
   #pairs with 26 - 30 PNOs   :    0
   #pairs with 31 - 35 PNOs   :    0
   #pairs with 36 - 40 PNOs   :    1
   #pairs with 41 - 45 PNOs   :    0
   #pairs with 46 - 50 PNOs   :    0
   #pairs with > 96 PNOs      :    3

Generation of (ij|ab)[P] integrals            ... on
Generation of (ia|bc)[P],(ja|bc)[P] integrals ... on
Storage of 3 and 4 external integrals         ... on
Generation of ALL (ka|bc)[P] integrals        ... on
Keep RI integrals in memory                   ... off

Ibatch:  1 (of  2)
Starting 2-4 index PNO integral generation ... done

Ibatch:  2 (of  2)
Starting 2-4 index PNO integral generation ... done

Timings:
Total PNO integral transformation time     ...      20376.427 sec
Size of the 3-external file                ...      1399 MB
Size of the 4-external file                ...     11133 MB
Size of the IKJL file                      ...       184 MB
Size of the all 3-external file            ...     68982 MB
Size of the 1-external file                ...       170 MB

Size of the PAO/PNO coefficient matrices   ...     668.2 MB

Making pair/pair overlap matrices          ... done ( 7021.197 sec)
Size of the pair overlap file              ...   21341.0 MB
Total # unrestricted pairs ...       7565
  # of alpha-alpha pairs   ...       1927
  # of alpha-beta pairs    ...       3857
  # of beta-beta pairs     ...       1781
Constructing the guess amplitudes          ... done (    1.341 sec)

-------------------------
FINAL STARTUP INFORMATION
-------------------------

E(0)                                       ...  -3997.316239078
E(SL-UMP2 in NEV-PNO space)                ...     -9.905195902
Initial E(tot)                             ...  -4007.221434981
<T|T>                                      ...      2.080519890
Number of unrestricted pairs included      ... 7565
Total number of pairs                      ... 45451
----------------------------------------------------------
                     OPEN-SHELL COUPLED CLUSTER ITERATIONS
----------------------------------------------------------

Number of PNO amplitudes to be optimized        ...         11290372
Number of canonical amplitudes for strong pairs ...      26766206624
Untruncated number of canonical amplitudes      ...     160812391160

Iter       E(tot)           E(Corr)          Delta-E          Residual     Time
  0  -4007.238417672     -9.784530349      0.120665554      0.021133830 8354.39
                           *** Turning on DIIS ***
  1  -4007.419069232     -9.965181909     -0.180651560      0.016323577 7212.30
  2  -4007.645436268    -10.191548945     -0.226367037      0.014538277 7114.30
  3  -4007.713085306    -10.259197983     -0.067649038      0.009064169 7102.72
  4  -4007.737772624    -10.283885301     -0.024687318      0.006566150 7099.40
  5  -4007.748112605    -10.294225282     -0.010339981      0.005110542 6978.72
  6  -4007.752017049    -10.298129727     -0.003904445      0.003395632 7121.49
  7  -4007.753569478    -10.299682156     -0.001552429      0.002574016 6974.71
  8  -4007.753869477    -10.299982154     -0.000299999      0.002082422 7632.26
  9  -4007.754064085    -10.300176763     -0.000194608      0.001820563 7643.68
 10  -4007.753985113    -10.300097790      0.000078973      0.001488900 7670.01
 11  -4007.753907709    -10.300020386      0.000077404      0.001357528 7659.49
 12  -4007.753864709    -10.299977386      0.000042999      0.001068132 7661.91
 13  -4007.753850398    -10.299963076      0.000014311      0.000848885 7665.74
 14  -4007.753854463    -10.299967140     -0.000004065      0.000577290 7675.20
 15  -4007.753872791    -10.299985468     -0.000018328      0.000371375 7128.27
 16  -4007.753911908    -10.300024585     -0.000039117      0.000351837 7051.08
 17  -4007.753940801    -10.300053479     -0.000028894      0.000333165 7642.57
 18  -4007.753967439    -10.300080116     -0.000026638      0.000319043 7257.02
 19  -4007.753982045    -10.300094722     -0.000014606      0.000306051 7037.74
 20  -4007.753994315    -10.300106992     -0.000012270      0.000290982 7550.09
 21  -4007.754001490    -10.300114167     -0.000007175      0.000275324 7704.24
 22  -4007.754007217    -10.300119895     -0.000005728      0.000254689 7658.85
 23  -4007.754008857    -10.300121534     -0.000001639      0.000235751 7322.45
 24  -4007.754008397    -10.300121074      0.000000459      0.000212571 7288.36
 25  -4007.754006555    -10.300119232      0.000001842      0.000189623 7633.84
 26  -4007.754002654    -10.300115331      0.000003901      0.000164695 6998.55
 27  -4007.753997443    -10.300110120      0.000005210      0.000134144 7600.67
 28  -4007.753994858    -10.300107536      0.000002585      0.000110434 7651.40
 29  -4007.753994309    -10.300106986      0.000000550      0.000096251 7625.48
 30  -4007.753995390    -10.300108067     -0.000001082      0.000086821 7631.30
 31  -4007.753996727    -10.300109405     -0.000001337      0.000079674 7623.46
 32  -4007.753998498    -10.300111175     -0.000001770      0.000077914 7034.12
 33  -4007.753999894    -10.300112571     -0.000001396      0.000077745 6996.26
 34  -4007.754002595    -10.300115272     -0.000002701      0.000075542 6983.23
 35  -4007.754004277    -10.300116954     -0.000001682      0.000070961 6985.90
 36  -4007.754004959    -10.300117636     -0.000000682      0.000065609 6981.59
 37  -4007.754005556    -10.300118233     -0.000000598      0.000059314 7106.25
 38  -4007.754006241    -10.300118918     -0.000000685      0.000046104 7036.50
 39  -4007.754006030    -10.300118707      0.000000211      0.000030995 7016.43
 40  -4007.754005790    -10.300118467      0.000000240      0.000024762 6992.12
 41  -4007.754005195    -10.300117872      0.000000595      0.000020437 6989.99
 42  -4007.754005173    -10.300117850      0.000000022      0.000018354 6991.69
 43  -4007.754005340    -10.300118017     -0.000000168      0.000017004 6979.54
 44  -4007.754005441    -10.300118118     -0.000000101      0.000015956 6987.21
 45  -4007.754005493    -10.300118170     -0.000000052      0.000014552 6984.57
 46  -4007.754005308    -10.300117985      0.000000185      0.000013712 6979.93
 47  -4007.754005077    -10.300117754      0.000000231      0.000012949 6979.68
 48  -4007.754004752    -10.300117429      0.000000325      0.000012431 6981.95
 49  -4007.754004501    -10.300117178      0.000000250      0.000011985 6980.64
 50  -4007.754004341    -10.300117018      0.000000161      0.000011556 6979.01
 51  -4007.754004223    -10.300116901      0.000000117      0.000011125 6977.49
 52  -4007.754004171    -10.300116848      0.000000052      0.000010725 6979.39
 53  -4007.754004172    -10.300116849     -0.000000001      0.000010282 6980.48
 54  -4007.754004224    -10.300116901     -0.000000052      0.000009868 6981.46
               --- The CCSD iterations have converged ---

E(0)                                       ...  -3997.316239078
E(CORR)(strong-pairs)                      ...    -10.300116901
E(CORR)(weak-pairs)                        ...     -0.137648245
E(CORR)(corrected)                         ...    -10.437765146
E(TOT)                                     ...  -4007.754004224
Singles norm <S|S>**1/2                    ...      0.252751531 ( 0.110483027, 0.142268503)  
T1 diagnostic                              ...      0.014544216                              
<S**2>(linearized)                         ...      2.0009749 (ideal value:      2.0000000)

----------------------
LARGEST PNO AMPLITUDES
----------------------
  85b->216b  -1b-> -1b       0.069561
  86b->216b  -1b-> -1b       0.064676
 216a->220a  -1a-> -1a       0.060180
  91b->216b  -1b-> -1b       0.055421
 147a->222a 147b->222b       0.046595
 115a->222a 115b->222b       0.046563
  92b->216b  -1b-> -1b       0.045869
 212a->222a 212b->222b       0.045622
 180a->222a 180b->222b       0.045588
 178a->221a 178b->221b       0.045019
 210a->221a 210b->221b       0.045017
 113a->221a 113b->221b       0.044828
 145a->221a 145b->221b       0.044819
 216a->233a  -1a-> -1a       0.044112
 129a->220a 129b->220b       0.043893
  97a->220a  97b->220b       0.043836

Total # unrestricted pairs ...       8898
  # of alpha-alpha pairs   ...       2273
  # of alpha-beta pairs    ...       4449
  # of beta-beta pairs     ...       2176

-----------------------------------------------
DLPNO BASED TRIPLES CORRECTION
-----------------------------------------------

Singles multiplier          ...  1.000000
Fragment selection                          .... not used
TCutTNO                     ... 1.000e-09
TCutMP2Pairs                ... 1.000e-05
TCutDOStrong                ... 2.000e-02
TCutMKNStrong               ... 1.000e-02
TCutDOWeak                  ... 4.000e-02
TCutMKNWeak                 ... 1.000e-01
NTCutTNO                    ... 1

Number of Triples that are to be computed         ...     158270

 . . . . . . . . .
          Batch   1   done (  25636.839 sec)
 . . . . . . . . .
10% done  
          Batch   2   done (  28718.432 sec)
 . . . . . . . . .
20% done  
30% done  
          Batch   3   done (  33564.142 sec)
 . . . . . . . . .
40% done  
          Batch   4   done (  45519.996 sec)
 . . . . . . . . .
50% done  
60% done  
70% done  
          Batch   5   done (  69579.576 sec)
 . . . . . . . . .
80% done  
90% done  
          Batch   6   done (  49546.562 sec)

Triples-Correction TCutTNO=   1.000e-09 (NWeakPairs = 0  1  2  3)  -0.516659693936   -0.012672844910    0.000000000000    0.000000000000
Triples-Correction  -0.529332538846

Triples timings:
Total time                      ... 260606.887 sec

Triples List generation         ...     0.001 sec
TNO generation                  ...  8036.703 sec
Pair density generation         ...     2.294 sec
Look up tables                  ...    15.759 sec
Generating 3-index integrals    ... 99491.484 sec
Make 4-ind.int. from 3-ind.int  ...   106.730 sec
Projecting amplitudes (D + S)   ... 139366.940 sec
Sorting integrals for spin cases...  3039.311 sec
Calculate W0/W1                 ...  7779.825 sec
T0 Energy contr.(sum over a,b,c)...  2760.504 sec

Everything after 3-index in T0  ... 156842.635 sec

Energy contribution AAA         ...  1238.394 sec
Energy contribution AAB         ...  6094.200 sec
Energy contribution ABB         ...  5592.122 sec
Energy contribution BBB         ...   658.259 sec
prep                ...   153.530 sec
makeTTNO            ... 138360.430 sec
copyij              ...     4.844 sec
copyil              ...   240.187 sec
transposeij         ...     2.961 sec
newMatInDoubleProj  ...  1346.537 sec
BlasInDoubleProj    ... 80183.561 sec
ProjSingles         ...   501.794 sec
ProjDoubles         ... 138865.099 sec
overall Doubles for projection      ... 23536168
used Doubles for projection         ... 23536168


Number of Triples   (0, 1, 2, 3 weak pairs; overall):  58258   73131       0       0  (131389)
Number of Atoms     (0, 1, 2, 3 weak pairs; overall):   21.1    16.4     0.0     0.0  (    93)
Number of PAOs      (0, 1, 2, 3 weak pairs; overall):  589.3   483.9     0.0     0.0  (  2097)
Number of AuxFcns   (0, 1, 2, 3 weak pairs; overall):  746.7   418.9     0.0     0.0  (  5222)
Number of TNOs (0, 1, 2, 3 weak pairs         ):   95.5    65.8     0.0     0.0
Aver. Number of NTNO, Atoms, PAOs, AuxFcns / Triples: 131389    78.9    18.5   530.6   564.2

Triples Correction (T)                     ...     -0.529332539
    alpha-alpha-alpha ... -0.018742019 (  3.5%)
    alpha-alpha-beta  ... -0.247242659 ( 46.7%)
    alpha-beta -beta  ... -0.245033234 ( 46.3%)
    beta -beta -beta  ... -0.018314626 (  3.5%)
Final correlation energy                   ...    -10.967097685
E(CCSD)                                    ...  -4007.754004224
E(CCSD(T))                                 ...  -4008.283336763

----------------------------
STATISTICS FOR PAIR-ENERGIES
----------------------------
Minimum, maximum and average ratios of UMP and CCSD pair-energies ... 0.44, 1.61, 1.00


--------------------------------------------------------------------------------
                                    TIMINGS
--------------------------------------------------------------------------------


Total execution time                   ...   767101.712 sec

Localization of occupied MO's          ...       64.250 sec (  0.0%)
Fock Matrix Formation                  ...     2181.254 sec (  0.3%)
Differential overlap integrals         ...      168.223 sec (  0.0%)
Organizing maps                        ...       14.968 sec (  0.0%)
RI 3-index integral generations        ...     6604.642 sec (  0.9%)
RI-PNO integral transformation         ...    77898.843 sec ( 10.2%)
Initial Guess                          ...    28703.326 sec (  3.7%)
DIIS Solver                            ...       58.193 sec (  0.0%)
State Vector Update                    ...       64.834 sec (  0.0%)
Sigma-vector construction              ...   398857.115 sec ( 52.0%)
  <0|H|D>                              ...        1.918 sec (  0.0% of sigma)
  <0|H|S>                              ...        0.007 sec (  0.0% of sigma)
  <D|H|D>(0-ext)                       ...    29406.098 sec (  7.4% of sigma)
  <D|H|D>(2-ext Fock)                  ...       11.426 sec (  0.0% of sigma)
  <D|H|D>(2-ext)                       ...   100630.036 sec ( 25.2% of sigma)
  <D|H|D>(4-ext)                       ...    15542.031 sec (  3.9% of sigma)
  <D|H|D>(4-ext-corr)                  ...   160251.439 sec ( 40.2% of sigma)
  CCSD doubles correction              ...      709.721 sec (  0.2% of sigma)
  <S|H|S>                              ...     1972.060 sec (  0.5% of sigma)
  <S|H|D>(1-ext)                       ...     2112.563 sec (  0.5% of sigma)
  <D|H|S>(1-ext)                       ...       62.063 sec (  0.0% of sigma)
  <S|H|D>(3-ext)                       ...      439.453 sec (  0.1% of sigma)
  CCSD singles correction              ...        0.482 sec (  0.0% of sigma)
  Fock-dressing                        ...    65584.179 sec ( 16.4% of sigma)
  Singles amplitudes                   ...      382.746 sec (  0.1% of sigma)
  (ik|jl)-dressing                     ...    18046.323 sec (  4.5% of sigma)
  (ij|ab),(ia|jb)-dressing             ...     2770.327 sec (  0.7% of sigma)
  Pair energies                        ...       67.941 sec (  0.0% of sigma)
Total Time for computing (T)           ...   260683.556 sec ( 34.0% of ALL)


Maximum memory used throughout the entire MDCI-calculation: 125729.2 MB

-------------------------   --------------------
FINAL SINGLE POINT ENERGY     -4008.283336762800
-------------------------   --------------------


                            ***************************************
                            *     ORCA property calculations      *
                            ***************************************


  WARNING: The energy has been calculated at the MDCI level but the densities
           used in the property calculations are still SCF densities
           MDCI response densities have not been calculated 
           use %mdci Density linearized end
           or  %mdci Density unrelaxed end
           or  %mdci Density orbopt end

                                    ---------------------
                                    Active property flags
                                    ---------------------
   (+) Dipole Moment


------------------------------------------------------------------------------
                       ORCA ELECTRIC PROPERTIES CALCULATION
------------------------------------------------------------------------------

Dipole Moment Calculation                       ... on
Quadrupole Moment Calculation                   ... off
Polarizability Calculation                      ... off
GBWName                                         ... /scratch/dca0099.321671/Energy_T0_def_pyrazine_Nickel.gbw
Electron density                                ... /scratch/dca0099.321671/Energy_T0_def_pyrazine_Nickel.scfp
The origin for moment calculation is the CENTER OF MASS  = ( 0.000005,  0.000001  0.000002)

-------------
DIPOLE MOMENT
-------------
                                X             Y             Z
Electronic contribution:      0.00025       0.00003      -4.57679
Nuclear contribution   :     -0.00023      -0.00005      -0.00009
                        -----------------------------------------
Total Dipole Moment    :      0.00002      -0.00001      -4.57688
                        -----------------------------------------
Magnitude (a.u.)       :      4.57688
Magnitude (Debye)      :     11.63351



--------------------
Rotational spectrum 
--------------------
 
Rotational constants in cm-1:     0.002029     0.001023     0.001023 
Rotational constants in MHz :    60.821095    30.664964    30.663309 

 Dipole components along the rotational axes: 
x,y,z [a.u.] :    -4.576882    -0.000019     0.000039 
x,y,z [Debye]:   -11.633509    -0.000048     0.000099 

 

Timings for individual modules:

Sum of individual times         ...   840085.625 sec (=14001.427 min)
GTO integral calculation        ...       16.782 sec (=   0.280 min)   0.0 %
SCF iterations                  ...    72952.771 sec (=1215.880 min)   8.7 %
MDCI module                     ...   767116.072 sec (=12785.268 min)  91.3 %
                             ****ORCA TERMINATED NORMALLY****
TOTAL RUN TIME: 9 days 17 hours 21 minutes 33 seconds 167 msec
