
                                 *****************
                                 * O   R   C   A *
                                 *****************

                                            #,                                       
                                            ###                                      
                                            ####                                     
                                            #####                                    
                                            ######                                   
                                           ########,                                 
                                     ,,################,,,,,                         
                               ,,#################################,,                 
                          ,,##########################################,,             
                       ,#########################################, ''#####,          
                    ,#############################################,,   '####,        
                  ,##################################################,,,,####,       
                ,###########''''           ''''###############################       
              ,#####''   ,,,,##########,,,,          '''####'''          '####       
            ,##' ,,,,###########################,,,                        '##       
           ' ,,###''''                  '''############,,,                           
         ,,##''                                '''############,,,,        ,,,,,,###''
      ,#''                                            '''#######################'''  
     '                                                          ''''####''''         
             ,#######,   #######,   ,#######,      ##                                
            ,#'     '#,  ##    ##  ,#'     '#,    #''#        ######   ,####,        
            ##       ##  ##   ,#'  ##            #'  '#       #        #'  '#        
            ##       ##  #######   ##           ,######,      #####,   #    #        
            '#,     ,#'  ##    ##  '#,     ,#' ,#      #,         ##   #,  ,#        
             '#######'   ##     ##  '#######'  #'      '#     #####' # '####'        



                  #######################################################
                  #                        -***-                        #
                  #          Department of theory and spectroscopy      #
                  #    Directorship and core code : Frank Neese         #
                  #        Max Planck Institute fuer Kohlenforschung    #
                  #                Kaiser Wilhelm Platz 1               #
                  #                 D-45470 Muelheim/Ruhr               #
                  #                      Germany                        #
                  #                                                     #
                  #                  All rights reserved                #
                  #                        -***-                        #
                  #######################################################


                         Program Version 5.0.3 -  RELEASE  -


 With contributions from (in alphabetic order):
   Daniel Aravena         : Magnetic Suceptibility
   Michael Atanasov       : Ab Initio Ligand Field Theory (pilot matlab implementation)
   Alexander A. Auer      : GIAO ZORA, VPT2 properties, NMR spectrum
   Ute Becker             : Parallelization
   Giovanni Bistoni       : ED, misc. LED, open-shell LED, HFLD
   Martin Brehm           : Molecular dynamics
   Dmytro Bykov           : SCF Hessian
   Vijay G. Chilkuri      : MRCI spin determinant printing, contributions to CSF-ICE
   Dipayan Datta          : RHF DLPNO-CCSD density
   Achintya Kumar Dutta   : EOM-CC, STEOM-CC
   Dmitry Ganyushin       : Spin-Orbit,Spin-Spin,Magnetic field MRCI
   Miquel Garcia          : C-PCM and meta-GGA Hessian, CC/C-PCM, Gaussian charge scheme
   Yang Guo               : DLPNO-NEVPT2, F12-NEVPT2, CIM, IAO-localization
   Andreas Hansen         : Spin unrestricted coupled pair/coupled cluster methods
   Benjamin Helmich-Paris : MC-RPA, TRAH-SCF, COSX integrals
   Lee Huntington         : MR-EOM, pCC
   Robert Izsak           : Overlap fitted RIJCOSX, COSX-SCS-MP3, EOM
   Marcus Kettner         : VPT2
   Christian Kollmar      : KDIIS, OOCD, Brueckner-CCSD(T), CCSD density, CASPT2, CASPT2-K
   Simone Kossmann        : Meta GGA functionals, TD-DFT gradient, OOMP2, MP2 Hessian
   Martin Krupicka        : Initial AUTO-CI
   Lucas Lang             : DCDCAS
   Marvin Lechner         : AUTO-CI (C++ implementation), FIC-MRCC
   Dagmar Lenk            : GEPOL surface, SMD
   Dimitrios Liakos       : Extrapolation schemes; Compound Job, initial MDCI parallelization
   Dimitrios Manganas     : Further ROCIS development; embedding schemes
   Dimitrios Pantazis     : SARC Basis sets
   Anastasios Papadopoulos: AUTO-CI, single reference methods and gradients
   Taras Petrenko         : DFT Hessian,TD-DFT gradient, ASA, ECA, R-Raman, ABS, FL, XAS/XES, NRVS
   Peter Pinski           : DLPNO-MP2, DLPNO-MP2 Gradient
   Christoph Reimann      : Effective Core Potentials
   Marius Retegan         : Local ZFS, SOC
   Christoph Riplinger    : Optimizer, TS searches, QM/MM, DLPNO-CCSD(T), (RO)-DLPNO pert. Triples
   Tobias Risthaus        : Range-separated hybrids, TD-DFT gradient, RPA, STAB
   Michael Roemelt        : Original ROCIS implementation
   Masaaki Saitow         : Open-shell DLPNO-CCSD energy and density
   Barbara Sandhoefer     : DKH picture change effects
   Avijit Sen             : IP-ROCIS
   Kantharuban Sivalingam : CASSCF convergence, NEVPT2, FIC-MRCI
   Bernardo de Souza      : ESD, SOC TD-DFT
   Georgi Stoychev        : AutoAux, RI-MP2 NMR, DLPNO-MP2 response
   Willem Van den Heuvel  : Paramagnetic NMR
   Boris Wezisla          : Elementary symmetry handling
   Frank Wennmohs         : Technical directorship


 We gratefully acknowledge several colleagues who have allowed us to
 interface, adapt or use parts of their codes:
   Stefan Grimme, W. Hujo, H. Kruse, P. Pracht,  : VdW corrections, initial TS optimization,
                  C. Bannwarth, S. Ehlert          DFT functionals, gCP, sTDA/sTD-DF
   Ed Valeev, F. Pavosevic, A. Kumar             : LibInt (2-el integral package), F12 methods
   Garnet Chan, S. Sharma, J. Yang, R. Olivares  : DMRG
   Ulf Ekstrom                                   : XCFun DFT Library
   Mihaly Kallay                                 : mrcc  (arbitrary order and MRCC methods)
   Jiri Pittner, Ondrej Demel                    : Mk-CCSD
   Frank Weinhold                                : gennbo (NPA and NBO analysis)
   Christopher J. Cramer and Donald G. Truhlar   : smd solvation model
   Lars Goerigk                                  : TD-DFT with DH, B97 family of functionals
   V. Asgeirsson, H. Jonsson                     : NEB implementation
   FAccTs GmbH                                   : IRC, NEB, NEB-TS, DLPNO-Multilevel, CI-OPT
                                                   MM, QMMM, 2- and 3-layer-ONIOM, Crystal-QMMM,
                                                   LR-CPCM, SF, NACMEs, symmetry and pop. for TD-DFT,
                                                   nearIR, NL-DFT gradient (VV10), updates on ESD,
                                                   ML-optimized integration grids
   S Lehtola, MJT Oliveira, MAL Marques          : LibXC Library
   Liviu Ungur et al                             : ANISO software


 Your calculation uses the libint2 library for the computation of 2-el integrals
 For citations please refer to: http://libint.valeyev.net

 Your ORCA version has been built with support for libXC version: 5.1.0
 For citations please refer to: https://tddft.org/programs/libxc/

 This ORCA versions uses:
   CBLAS   interface :  Fast vector & matrix operations
   LAPACKE interface :  Fast linear algebra routines
   SCALAPACK package :  Parallel linear algebra routines
   Shared memory     :  Shared parallel matrices
   BLAS/LAPACK       :  OpenBLAS 0.3.15  USE64BITINT DYNAMIC_ARCH NO_AFFINITY Haswell SINGLE_THREADED
        Core in use  :  Haswell
   Copyright (c) 2011-2014, The OpenBLAS Project


================================================================================

----- Orbital basis set information -----
Your calculation utilizes the basis: def2-TZVP
   F. Weigend and R. Ahlrichs, Phys. Chem. Chem. Phys. 7, 3297 (2005).

----- AuxJ basis set information -----
Your calculation utilizes the auxiliary basis: def2/J
   F. Weigend, Phys. Chem. Chem. Phys. 8, 1057 (2006).

----- AuxC basis set information -----
Your calculation utilizes the auxiliary basis: def2-TZVP/C
  H-La, Hf-Rn : A. Hellweg, C. Hattig, S. Hofener and W. Klopper, Theor. Chem. Acc. 117, 587 (2007).
        Ce-Lu : J. Chmela and M. E. Harding, Mol. Phys. (2018).

================================================================================
                                        WARNINGS
                       Please study these warnings very carefully!
================================================================================


WARNING: Post HF methods need fully converged wavefunctions
  ===> : Setting SCFConvForced true
         You can overwrite this default with %scf ConvForced false 


WARNING: MDCI localization with Augmented Hessian Foster-Boys
  ===> : Switching off randomization!

INFO   : the flag for use of the SHARK integral package has been found!

================================================================================
                                       INPUT FILE
================================================================================
NAME = /scratch/dca0099.323469/Energy_S1_def_pyrazine_Nickel.inp
|  1> !DLPNO-CCSD(T) DEF2-TZVP DEF2-TZVP/C def2/J RIJCOSX TIGHTSCF CPCM(CH2Cl2) RI-SOMF(1X)
|  2>  
|  3> %maxcore  120000
|  4> 
|  5> %mdci
|  6> 	DOSOLV  TRUE
|  7> 	Maxiter 1000 # maxiter, probably last two is just overkilling
|  8> end
|  9> 
| 10> # pyrazine_Nickel
| 11> 
| 12> * XYZ 0 1 
| 13>   Ni  -0.00004905151749     -0.00032530939270     -0.00001471778878
| 14>   N   -0.00018003405306     -0.00038348337546      1.87765472430437
| 15>   N   -0.00027191516755     -0.00029271173073      4.57250133115961
| 16>   C   1.15122009318728     -0.23393496342743      2.52544449547331
| 17>   C   4.43085332617003     -0.17427538493204     -0.09912120128954
| 18>   C   3.64444303428642     -0.02311707618454      2.15823986567297
| 19>   H   3.82931504469430      0.13052165358663      3.20934918533445
| 20>   C   4.69287310970436      0.00736998914583      1.25148725329594
| 21>   C   1.08142579250700     -0.40628995736947      3.92088626753917
| 22>   N   2.10508024814931     -0.36798340960615      0.36728189295218
| 23>   C   3.64217724170561     -2.78185482321523      4.84597161125224
| 24>   N   2.71332296702831     -2.13372169779124      4.14756666900360
| 25>   C   2.45378412333729     -0.61795242327778      5.99459595281878
| 26>   H   1.95163576909041      0.24489255884187      6.40815999758204
| 27>   C   2.35595513185214     -0.23745956116808      1.68169648968768
| 28>   C   4.04115537494975     -2.39912073539897      6.12340456136883
| 29>   H   4.80761231986730     -2.95819454376136      6.64302055343803
| 30>   C   3.11330117466061     -0.34648057359991     -0.49914986413626
| 31>   C   2.13549413551763     -1.06838266071298      4.71691106616049
| 32>   C   3.43276243419510     -1.29697704518439      6.70649120880743
| 33>   H   3.71562854953635     -0.96875492709544      7.69824732192107
| 34>   H   5.70350415408763      0.17498963609512      1.59945746320693
| 35>   H   4.08863795548124     -3.64647674650045      4.36741105837627
| 36>   H   5.22366610293311     -0.16658834852134     -0.83411357278990
| 37>   H   2.85754436811149     -0.46086928237183     -1.54506278731911
| 38>   C   -1.15165109287196      0.23318673433871      2.52532467338342
| 39>   C   -4.43089576070260      0.17326148272034     -0.09980156853544
| 40>   C   -3.64481858051011      0.02170057868628      2.15764485169873
| 41>   H   -3.82984080029778     -0.13231831657084      3.20865502557927
| 42>   C   -4.69308915883512     -0.00880604256306      1.25071216919668
| 43>   C   -1.08192702868167      0.40568896531451      3.92078855645241
| 44>   N   -2.10523068321117      0.36726298709973      0.36702482295057
| 45>   C   -3.64028764861000      2.78383238007621      4.84594240988097
| 46>   N   -2.71206565856752      2.13481062882705      4.14752770818408
| 47>   C   -2.45443105332428      0.61839007248779      5.99428100410127
| 48>   H   -1.95323500827913     -0.24504423072588      6.40776744193889
| 49>   C   -2.35629408657830      0.23653421112147      1.68139056252779
| 50>   C   -4.03990136390906      2.40124314499136      6.12322036615618
| 51>   H   -4.80581759395103      2.96104978312012      6.64284486168421
| 52>   C   -3.11330994628749      0.34575623296289     -0.49957502181722
| 53>   C   -2.13557064327109      1.06863802893219      4.71667308511747
| 54>   C   -3.43278439233415      1.29832564282045      6.70617015730736
| 55>   H   -3.71612544984867      0.97022859042073      7.69783188839947
| 56>   H   -5.70373549068832     -0.17677103773250      1.59847132962050
| 57>   H   -4.08571777051557      3.64905398439383      4.36750545483330
| 58>   H   -5.22358182072635      0.16554319101821     -0.83493063011017
| 59>   H   -2.85739259430415      0.46031181104890     -1.54543051957768
| 60>   N   0.00007077724049     -0.00025118886815     -1.87769193212261
| 61>   N   0.00016360021363     -0.00009248982833     -4.57256108128375
| 62>   C   -0.23306612835918     -1.15173024249051     -2.52548535199491
| 63>   C   -0.17409940099907     -4.43128837685083      0.09911816101898
| 64>   C   -0.02256515644157     -3.64491575056968     -2.15823430830073
| 65>   H   0.13108303232747     -3.82980383575549     -3.20935449480821
| 66>   C   0.00768178743126     -4.69334500122092     -1.25146986364192
| 67>   C   -0.40495586388864     -1.08215888850597     -3.92098428321520
| 68>   N   -0.36762199709251     -2.10550515122348     -0.36732829932019
| 69>   C   -2.77659230659125     -3.64663245539540     -4.84577221611607
| 70>   N   -2.12985077324999     -2.71673123119242     -4.14746565318720
| 71>   C   -0.61491992710669     -2.45459395546054     -5.99482585919072
| 72>   H   0.24705929389134     -1.95106483420929     -6.40851803817344
| 73>   C   -0.23674880786180     -2.35640834693480     -1.68170030382750
| 74>   C   -2.39351801189122     -4.04486691381634     -6.12333541577190
| 75>   H   -2.95143907887071     -4.81222050597466     -6.64286689712886
| 76>   C   -0.34632154280382     -3.11372043625576      0.49911218833638
| 77>   C   -1.06567415026926     -2.13702905518732     -4.71707551708793
| 78>   C   -1.29250425712357     -3.43463025047478     -6.70663326999137
| 79>   H   -0.96401688863576     -3.71692524430026     -7.69846448598802
| 80>   H   0.17520760778500     -5.70400112804701     -1.59941285614935
| 81>   H   -3.64034622443471     -4.09457455677688     -4.36702870489247
| 82>   H   -0.16661075733232     -5.22409998734376      0.83411398564478
| 83>   H   -0.46093784906744     -2.85795745983772      1.54499916735524
| 84>   C   0.23326436762722      1.15128872917615     -2.52534953049086
| 85>   C   0.17420215135589      4.43065141482459      0.09944806065742
| 86>   C   0.02311096369343      3.64444796460744     -2.15799527103656
| 87>   H   -0.13021887609455      3.82941797438140     -3.20915711230215
| 88>   C   -0.00721026967835      4.69282381138194     -1.25116946085244
| 89>   C   0.40522059848916      1.08189654424534     -3.92082739990036
| 90>   N   0.36759872166598      2.10488116769999     -0.36710900956034
| 91>   C   2.77551794036789      3.64784890619395     -4.84489789493308
| 92>   N   2.12919365117135      2.71748359004552     -4.14681991073455
| 93>   C   0.61484257021107      2.45457764823157     -5.99455059654755
| 94>   H   -0.24675857521499      1.95058333279263     -6.40846533988447
| 95>   C   0.23696776739297      2.35588564398253     -1.68148097080718
| 96>   C   2.39251106177778      4.04593182217275     -6.12252817293183
| 97>   H   2.95008149699231      4.81366986246005     -6.64186784011199
| 98>   C   0.34621996849678      3.11303889736099      0.49939402810875
| 99>   C   1.06555238098492      2.13712630679228     -4.71675688199039
|100>   C   1.29199869460880      3.43507619508981     -6.70612662942334
|101>   H   0.96355616622365      3.71726451784529     -7.69800310259310
|102>   H   -0.17450408070742      5.70352668446661     -1.59908810699903
|103>   H   3.63887904814922      4.09629068501220     -4.36591367475226
|104>   H   0.16666407652238      5.22341861924766      0.83449117240972
|105>   H   0.46064537508578      2.85719997266918      1.54528351950867
|106> *
|107> 
|108> 
|109>                          ****END OF INPUT****
================================================================================

                       ****************************
                       * Single Point Calculation *
                       ****************************

---------------------------------
CARTESIAN COORDINATES (ANGSTROEM)
---------------------------------
  Ni    -0.000049   -0.000325   -0.000015
  N     -0.000180   -0.000383    1.877655
  N     -0.000272   -0.000293    4.572501
  C      1.151220   -0.233935    2.525444
  C      4.430853   -0.174275   -0.099121
  C      3.644443   -0.023117    2.158240
  H      3.829315    0.130522    3.209349
  C      4.692873    0.007370    1.251487
  C      1.081426   -0.406290    3.920886
  N      2.105080   -0.367983    0.367282
  C      3.642177   -2.781855    4.845972
  N      2.713323   -2.133722    4.147567
  C      2.453784   -0.617952    5.994596
  H      1.951636    0.244893    6.408160
  C      2.355955   -0.237460    1.681696
  C      4.041155   -2.399121    6.123405
  H      4.807612   -2.958195    6.643021
  C      3.113301   -0.346481   -0.499150
  C      2.135494   -1.068383    4.716911
  C      3.432762   -1.296977    6.706491
  H      3.715629   -0.968755    7.698247
  H      5.703504    0.174990    1.599457
  H      4.088638   -3.646477    4.367411
  H      5.223666   -0.166588   -0.834114
  H      2.857544   -0.460869   -1.545063
  C     -1.151651    0.233187    2.525325
  C     -4.430896    0.173261   -0.099802
  C     -3.644819    0.021701    2.157645
  H     -3.829841   -0.132318    3.208655
  C     -4.693089   -0.008806    1.250712
  C     -1.081927    0.405689    3.920789
  N     -2.105231    0.367263    0.367025
  C     -3.640288    2.783832    4.845942
  N     -2.712066    2.134811    4.147528
  C     -2.454431    0.618390    5.994281
  H     -1.953235   -0.245044    6.407767
  C     -2.356294    0.236534    1.681391
  C     -4.039901    2.401243    6.123220
  H     -4.805818    2.961050    6.642845
  C     -3.113310    0.345756   -0.499575
  C     -2.135571    1.068638    4.716673
  C     -3.432784    1.298326    6.706170
  H     -3.716125    0.970229    7.697832
  H     -5.703735   -0.176771    1.598471
  H     -4.085718    3.649054    4.367505
  H     -5.223582    0.165543   -0.834931
  H     -2.857393    0.460312   -1.545431
  N      0.000071   -0.000251   -1.877692
  N      0.000164   -0.000092   -4.572561
  C     -0.233066   -1.151730   -2.525485
  C     -0.174099   -4.431288    0.099118
  C     -0.022565   -3.644916   -2.158234
  H      0.131083   -3.829804   -3.209354
  C      0.007682   -4.693345   -1.251470
  C     -0.404956   -1.082159   -3.920984
  N     -0.367622   -2.105505   -0.367328
  C     -2.776592   -3.646632   -4.845772
  N     -2.129851   -2.716731   -4.147466
  C     -0.614920   -2.454594   -5.994826
  H      0.247059   -1.951065   -6.408518
  C     -0.236749   -2.356408   -1.681700
  C     -2.393518   -4.044867   -6.123335
  H     -2.951439   -4.812221   -6.642867
  C     -0.346322   -3.113720    0.499112
  C     -1.065674   -2.137029   -4.717076
  C     -1.292504   -3.434630   -6.706633
  H     -0.964017   -3.716925   -7.698464
  H      0.175208   -5.704001   -1.599413
  H     -3.640346   -4.094575   -4.367029
  H     -0.166611   -5.224100    0.834114
  H     -0.460938   -2.857957    1.544999
  C      0.233264    1.151289   -2.525350
  C      0.174202    4.430651    0.099448
  C      0.023111    3.644448   -2.157995
  H     -0.130219    3.829418   -3.209157
  C     -0.007210    4.692824   -1.251169
  C      0.405221    1.081897   -3.920827
  N      0.367599    2.104881   -0.367109
  C      2.775518    3.647849   -4.844898
  N      2.129194    2.717484   -4.146820
  C      0.614843    2.454578   -5.994551
  H     -0.246759    1.950583   -6.408465
  C      0.236968    2.355886   -1.681481
  C      2.392511    4.045932   -6.122528
  H      2.950081    4.813670   -6.641868
  C      0.346220    3.113039    0.499394
  C      1.065552    2.137126   -4.716757
  C      1.291999    3.435076   -6.706127
  H      0.963556    3.717265   -7.698003
  H     -0.174504    5.703527   -1.599088
  H      3.638879    4.096291   -4.365914
  H      0.166664    5.223419    0.834491
  H      0.460645    2.857200    1.545284

----------------------------
CARTESIAN COORDINATES (A.U.)
----------------------------
  NO LB      ZA    FRAG     MASS         X           Y           Z
   0 Ni   28.0000    0    58.700   -0.000093   -0.000615   -0.000028
   1 N     7.0000    0    14.007   -0.000340   -0.000725    3.548253
   2 N     7.0000    0    14.007   -0.000514   -0.000553    8.640775
   3 C     6.0000    0    12.011    2.175491   -0.442073    4.772398
   4 C     6.0000    0    12.011    8.373099   -0.329333   -0.187312
   5 C     6.0000    0    12.011    6.886999   -0.043685    4.078482
   6 H     1.0000    0     1.008    7.236357    0.246650    6.064791
   7 C     6.0000    0    12.011    8.868245    0.013927    2.364968
   8 C     6.0000    0    12.011    2.043599   -0.767777    7.409401
   9 N     7.0000    0    14.007    3.978025   -0.695388    0.694062
  10 C     6.0000    0    12.011    6.882718   -5.256944    9.157559
  11 N     7.0000    0    14.007    5.127437   -4.032150    7.837765
  12 C     6.0000    0    12.011    4.636980   -1.167761   11.328145
  13 H     1.0000    0     1.008    3.688057    0.462780   12.109667
  14 C     6.0000    0    12.011    4.452110   -0.448734    3.177946
  15 C     6.0000    0    12.011    7.636677   -4.533681   11.571558
  16 H     1.0000    0     1.008    9.085071   -5.590178   12.553490
  17 C     6.0000    0    12.011    5.883287   -0.654753   -0.943257
  18 C     6.0000    0    12.011    4.035499   -2.018951    8.913670
  19 C     6.0000    0    12.011    6.486981   -2.450931   12.673432
  20 H     1.0000    0     1.008    7.021520   -1.830682   14.547579
  21 H     1.0000    0     1.008   10.778061    0.330682    3.022537
  22 H     1.0000    0     1.008    7.726406   -6.890842    8.253211
  23 H     1.0000    0     1.008    9.871298   -0.314806   -1.576246
  24 H     1.0000    0     1.008    5.399976   -0.870917   -2.919746
  25 C     6.0000    0    12.011   -2.176305    0.440659    4.772172
  26 C     6.0000    0    12.011   -8.373180    0.327417   -0.188598
  27 C     6.0000    0    12.011   -6.887709    0.041008    4.077358
  28 H     1.0000    0     1.008   -7.237350   -0.250045    6.063479
  29 C     6.0000    0    12.011   -8.868653   -0.016641    2.363503
  30 C     6.0000    0    12.011   -2.044546    0.766641    7.409217
  31 N     7.0000    0    14.007   -3.978309    0.694026    0.693576
  32 C     6.0000    0    12.011   -6.879147    5.260681    9.157504
  33 N     7.0000    0    14.007   -5.125061    4.034207    7.837692
  34 C     6.0000    0    12.011   -4.638203    1.168588   11.327549
  35 H     1.0000    0     1.008   -3.691079   -0.463066   12.108926
  36 C     6.0000    0    12.011   -4.452751    0.446985    3.177368
  37 C     6.0000    0    12.011   -7.634307    4.537692   11.571210
  38 H     1.0000    0     1.008   -9.081679    5.595573   12.553158
  39 C     6.0000    0    12.011   -5.883303    0.653385   -0.944060
  40 C     6.0000    0    12.011   -4.035644    2.019433    8.913220
  41 C     6.0000    0    12.011   -6.487022    2.453480   12.672825
  42 H     1.0000    0     1.008   -7.022459    1.833466   14.546794
  43 H     1.0000    0     1.008  -10.778498   -0.334049    3.020673
  44 H     1.0000    0     1.008   -7.720888    6.895713    8.253389
  45 H     1.0000    0     1.008   -9.871139    0.312831   -1.577790
  46 H     1.0000    0     1.008   -5.399689    0.869863   -2.920440
  47 N     7.0000    0    14.007    0.000134   -0.000475   -3.548324
  48 N     7.0000    0    14.007    0.000309   -0.000175   -8.640888
  49 C     6.0000    0    12.011   -0.440431   -2.176455   -4.772476
  50 C     6.0000    0    12.011   -0.329000   -8.373921    0.187306
  51 C     6.0000    0    12.011   -0.042642   -6.887893   -4.078472
  52 H     1.0000    0     1.008    0.247711   -7.237280   -6.064801
  53 C     6.0000    0    12.011    0.014516   -8.869137   -2.364935
  54 C     6.0000    0    12.011   -0.765256   -2.044984   -7.409586
  55 N     7.0000    0    14.007   -0.694705   -3.978828   -0.694150
  56 C     6.0000    0    12.011   -5.246999   -6.891137   -9.157182
  57 N     7.0000    0    14.007   -4.024835   -5.133878   -7.837574
  58 C     6.0000    0    12.011   -1.162030   -4.638510  -11.328579
  59 H     1.0000    0     1.008    0.466874   -3.686978  -12.110344
  60 C     6.0000    0    12.011   -0.447390   -4.452966   -3.177953
  61 C     6.0000    0    12.011   -4.523094   -7.643691  -11.571427
  62 H     1.0000    0     1.008   -5.577412   -9.093779  -12.553199
  63 C     6.0000    0    12.011   -0.654453   -5.884079    0.943185
  64 C     6.0000    0    12.011   -2.013832   -4.038400   -8.913981
  65 C     6.0000    0    12.011   -2.442479   -6.490511  -12.673700
  66 H     1.0000    0     1.008   -1.821728   -7.023971  -14.547990
  67 H     1.0000    0     1.008    0.331094  -10.779000   -3.022452
  68 H     1.0000    0     1.008   -6.879257   -7.737625   -8.252488
  69 H     1.0000    0     1.008   -0.314849   -9.872118    1.576247
  70 H     1.0000    0     1.008   -0.871046   -5.400757    2.919625
  71 C     6.0000    0    12.011    0.440806    2.175620   -4.772219
  72 C     6.0000    0    12.011    0.329194    8.372718    0.187930
  73 C     6.0000    0    12.011    0.043673    6.887009   -4.078020
  74 H     1.0000    0     1.008   -0.246078    7.236551   -6.064428
  75 C     6.0000    0    12.011   -0.013625    8.868152   -2.364368
  76 C     6.0000    0    12.011    0.765756    2.044488   -7.409290
  77 N     7.0000    0    14.007    0.694661    3.977649   -0.693735
  78 C     6.0000    0    12.011    5.244969    6.893435   -9.155530
  79 N     7.0000    0    14.007    4.023593    5.135300   -7.836354
  80 C     6.0000    0    12.011    1.161884    4.638480  -11.328059
  81 H     1.0000    0     1.008   -0.466306    3.686068  -12.110244
  82 C     6.0000    0    12.011    0.447804    4.451979   -3.177539
  83 C     6.0000    0    12.011    4.521191    7.645703  -11.569901
  84 H     1.0000    0     1.008    5.574846    9.096518  -12.551311
  85 C     6.0000    0    12.011    0.654261    5.882791    0.943718
  86 C     6.0000    0    12.011    2.013602    4.038583   -8.913379
  87 C     6.0000    0    12.011    2.441524    6.491353  -12.672743
  88 H     1.0000    0     1.008    1.820857    7.024612  -14.547118
  89 H     1.0000    0     1.008   -0.329765   10.778103   -3.021839
  90 H     1.0000    0     1.008    6.876485    7.740868   -8.250381
  91 H     1.0000    0     1.008    0.314949    9.870831    1.576960
  92 H     1.0000    0     1.008    0.870494    5.399325    2.920163

--------------------------------
INTERNAL COORDINATES (ANGSTROEM)
--------------------------------
 Ni     0   0   0     0.000000000000     0.00000000     0.00000000
 N      1   0   0     1.877669447563     0.00000000     0.00000000
 N      2   1   0     2.694846609950   179.99576885     0.00000000
 C      2   1   3     1.341603568300   118.86797056   287.41170816
 C      4   2   1     4.200940192959   111.46143682    10.46665689
 C      5   4   2     2.395197062482    32.41044584   160.83693892
 H      6   5   4     1.078245482901   150.62558524   183.04847500
 C      6   5   4     1.386483099156    30.31691014   181.48332287
 C      3   2   4     1.326463676620    60.57522600   350.89505033
 N      1   2   4     2.168328537660    80.25118535   358.44131423
 C      7   6   5     3.345966267755   110.07248026   254.21436450
 N     11   7   6     1.330645059817    50.08511778   298.31589339
 C     12  11   7     2.403421328068    88.80888142   283.60235281
 H     13  12  11     1.080596896147   147.98231032   180.27213740
 C     10   1   2     1.344492623407   109.28681423   352.21979392
 C     11   7   6     1.391942482586   101.15887033   174.05206473
 H     16  11   7     1.081674882219   120.12236167   229.76807102
 C     10   1   2     1.329539694143   128.54211725   190.78537367
 C     12  11   7     1.339024445267   117.74822375   283.77728675
 C     16  11   7     1.387390616467   118.58351771    49.98443334
 H     20  16  11     1.082276852709   120.75917054   179.98295994
 H      8   6   5     1.081921772080   119.96164502   179.79522000
 H     11   7   6     1.084397732356   117.07254097    41.18440055
 H      5   4   2     1.081122091020   175.81677162   343.34283815
 H     18  10   1     1.082788143485   116.65764476   339.46229534
 C      2   1  10     1.341609857164   118.86910747   178.43831200
 C     26   2   1     4.200990884695   111.45749272    10.47493258
 C     27  26   2     2.395193599916    32.41111533   160.81126095
 H     28  27  26     1.078228838193   150.62408700   183.05092795
 C     28  27  26     1.386480706650    30.31680333   181.47974331
 C      3   2   4     1.326472181165    60.57560176   170.89376703
 N      1   2   4     2.168323980083    80.25079323   178.44006640
 C     29  28  27     3.349712713303   110.02191831   254.15977576
 N     33  29  28     1.330642097613    50.08173358   298.32859664
 C     34  33  29     2.403415201227    88.80910362   283.65140839
 H     35  34  33     1.080595810565   147.98249433   180.27999194
 C     32   1   2     1.344499960117   109.28649605   352.21449157
 C     33  29  28     1.391942750922   101.12730880   174.03603246
 H     38  33  29     1.081674978858   120.12244045   229.74339508
 C     32   1   2     1.329541888046   128.53999416   190.78680754
 C     34  33  29     1.339028369943   117.74884565   283.83267490
 C     38  33  29     1.387389092062   118.58335802    49.96309119
 H     42  38  33     1.082276683468   120.75911920   179.97854447
 H     30  28  27     1.081921753802   119.96158771   179.79507375
 H     33  29  28     1.084397684447   117.11088612    41.16764828
 H     27  26   2     1.081122333020   175.81598895   343.31513883
 H     40  32   1     1.082788249711   116.65743380   339.45495983
 N      1   2   4     1.877677219620   179.99940619   223.56251360
 N     48   1   2     2.694869155433   179.99798264   338.43592207
 C     48   1   2     1.341600962475   118.86883169   226.42003209
 C     50  48   1     4.200895408375   111.46526616   349.55396316
 C     51  50  48     2.395200347650    32.41000297   199.14223798
 H     52  51  50     1.078260180309   150.62717926   176.96315586
 C     52  51  50     1.386484954600    30.31704916   178.51768156
 C     49  48  50     1.326477212440    60.57610852     9.07874107
 N      1   2   4     2.168366044732    99.75029499    88.43987490
 C     53  52  51     3.341555115474   110.12062518   105.70991318
 N     57  53  52     1.330647569251    50.08753477    61.70106338
 C     58  57  53     2.403429040070    88.80865551    76.46888202
 H     59  58  57     1.080597507091   147.98218564   179.73808023
 C     56   1   2     1.344490227376   109.28570464   187.78946999
 C     57  53  52     1.391942645459   101.20493644   185.92377508
 H     62  57  53     1.081674818279   120.12227958   130.19800031
 C     56   1   2     1.329537847892   128.54386582   349.22182953
 C     58  57  53     1.339022738723   117.74759920    76.29980586
 C     62  57  53     1.387391963437   118.58368975   309.98499981
 H     66  62  57     1.082277032843   120.75919570   180.01219792
 H     54  52  51     1.081921916411   119.96172599   180.20396737
 H     57  53  52     1.084397669824   117.01726821   318.79086465
 H     51  50  48     1.081122190936   175.81752212    16.65046088
 H     64  56   1     1.082788608478   116.65768023    20.53686820
 C     48   1   2     1.341597479936   118.86817482    46.41869581
 C     72  48   1     4.200865430350   111.46744860   349.55830626
 C     73  72  48     2.395202456564    32.40965290   199.12783241
 H     74  73  72     1.078269521418   150.62802759   176.96475057
 C     74  73  72     1.386486330012    30.31710476   178.51562418
 C     49  48  72     1.326472100407    60.57590773     9.07720965
 N      1   2   4     2.168367453955    99.74928169   268.44048021
 C     75  74  73     3.339449308049   110.14827016   105.67879076
 N     79  75  74     1.330649307789    50.08943200    61.70854117
 C     80  79  75     2.403432424251    88.80854455    76.49656743
 H     81  80  79     1.080598083723   147.98207292   179.74255055
 C     78   1   2     1.344485532031   109.28598898   187.78713247
 C     79  75  74     1.391942313568   101.22276499   185.91504539
 H     84  79  75     1.081674710177   120.12222239   130.18409494
 C     78   1   2     1.329536224874   128.54496795   349.22345312
 C     80  79  75     1.339020343039   117.74726295    76.33114308
 C     84  79  75     1.387392960141   118.58377620   309.97299681
 H     88  84  79     1.082277081888   120.75921151   180.00968194
 H     76  74  73     1.081921855407   119.96174673   180.20377774
 H     79  75  74     1.084397673643   116.99558275   318.78169594
 H     73  72  48     1.081122120352   175.81794456    16.63631815
 H     86  78   1     1.082788787013   116.65774875    20.53278290

---------------------------
INTERNAL COORDINATES (A.U.)
---------------------------
 Ni     0   0   0     0.000000000000     0.00000000     0.00000000
 N      1   0   0     3.548281025925     0.00000000     0.00000000
 N      2   1   0     5.092522065732   179.99576885     0.00000000
 C      2   1   3     2.535263324378   118.86797056   287.41170816
 C      4   2   1     7.938626469674   111.46143682    10.46665689
 C      5   4   2     4.526266484863    32.41044584   160.83693892
 H      6   5   4     2.037588667821   150.62558524   183.04847500
 C      6   5   4     2.620073346716    30.31691014   181.48332287
 C      3   2   4     2.506653075406    60.57522600   350.89505033
 N      1   2   4     4.097547104543    80.25118535   358.44131423
 C      7   6   5     6.322959899395   110.07248026   254.21436450
 N     11   7   6     2.514554744509    50.08511778   298.31589339
 C     12  11   7     4.541808094475    88.80888142   283.60235281
 H     13  12  11     2.042032194883   147.98231032   180.27213740
 C     10   1   2     2.540722847316   109.28681423   352.21979392
 C     11   7   6     2.630390086258   101.15887033   174.05206473
 H     16  11   7     2.044069293335   120.12236167   229.76807102
 C     10   1   2     2.512465906108   128.54211725   190.78537367
 C     12  11   7     2.530389488180   117.74822375   283.77728675
 C     16  11   7     2.621788305895   118.58351771    49.98443334
 H     20  16  11     2.045206852702   120.75917054   179.98295994
 H      8   6   5     2.044535847557   119.96164502   179.79522000
 H     11   7   6     2.049214734399   117.07254097    41.18440055
 H      5   4   2     2.043024669360   175.81677162   343.34283815
 H     18  10   1     2.046173052244   116.65764476   339.46229534
 C      2   1  10     2.535275208610   118.86910747   178.43831200
 C     26   2   1     7.938722263173   111.45749272    10.47493258
 C     27  26   2     4.526259941562    32.41111533   160.81126095
 H     28  27  26     2.037557213882   150.62408700   183.05092795
 C     28  27  26     2.620068825534    30.31680333   181.47974331
 C      3   2   4     2.506669146667    60.57560176   170.89376703
 N      1   2   4     4.097538491972    80.25079323   178.44006640
 C     29  28  27     6.330039655457   110.02191831   254.15977576
 N     33  29  28     2.514549146755    50.08173358   298.32859664
 C     34  33  29     4.541796516422    88.80910362   283.65140839
 H     35  34  33     2.042030143430   147.98249433   180.27999194
 C     32   1   2     2.540736711688   109.28649605   352.21449157
 C     33  29  28     2.630390593340   101.12730880   174.03603246
 H     38  33  29     2.044069475957   120.12244045   229.74339508
 C     32   1   2     2.512470051984   128.53999416   190.78680754
 C     34  33  29     2.530396904744   117.74884565   283.83267490
 C     38  33  29     2.621785425187   118.58335802    49.96309119
 H     42  38  33     2.045206532884   120.75911920   179.97854447
 H     30  28  27     2.044535813017   119.96158771   179.79507375
 H     33  29  28     2.049214643863   117.11088612    41.16764828
 H     27  26   2     2.043025126674   175.81598895   343.31513883
 H     40  32   1     2.046173252982   116.65743380   339.45495983
 N      1   2   4     3.548295712985   179.99940619   223.56251360
 N     48   1   2     5.092564670519   179.99798264   338.43592207
 C     48   1   2     2.535258400083   118.86883169   226.42003209
 C     50  48   1     7.938541839077   111.46526616   349.55396316
 C     51  50  48     4.526272692931    32.41000297   199.14223798
 H     52  51  50     2.037616441896   150.62717926   176.96315586
 C     52  51  50     2.620076852996    30.31704916   178.51768156
 C     49  48  50     2.506678654399    60.57610852     9.07874107
 N      1   2   4     4.097617982638    99.75029499    88.43987490
 C     53  52  51     6.314624029649   110.12062518   105.70991318
 N     57  53  52     2.514559486652    50.08753477    61.70106338
 C     58  57  53     4.541822668045    88.80865551    76.46888202
 H     59  58  57     2.042033349401   147.98218564   179.73808023
 C     56   1   2     2.540718319475   109.28570464   187.78946999
 C     57  53  52     2.630390394044   101.20493644   185.92377508
 H     62  57  53     2.044069172506   120.12227958   130.19800031
 C     56   1   2     2.512462417198   128.54386582   349.22182953
 C     58  57  53     2.530386263279   117.74759920    76.29980586
 C     62  57  53     2.621790851300   118.58368975   309.98499981
 H     66  62  57     2.045207193107   120.75919570   180.01219792
 H     54  52  51     2.044536120305   119.96172599   180.20396737
 H     57  53  52     2.049214616229   117.01726821   318.79086465
 H     51  50  48     2.043024858173   175.81752212    16.65046088
 H     64  56   1     2.046173930952   116.65768023    20.53686820
 C     48   1   2     2.535251819038   118.86817482    46.41869581
 C     72  48   1     7.938485188819   111.46744860   349.55830626
 C     73  72  48     4.526276678202    32.40965290   199.12783241
 H     74  73  72     2.037634094034   150.62802759   176.96475057
 C     74  73  72     2.620079452148    30.31710476   178.51562418
 C     49  48  72     2.506668994056    60.57590773     9.07720965
 N      1   2   4     4.097620645683    99.74928169   268.44048021
 C     75  74  73     6.310644630326   110.14827016   105.67879076
 N     79  75  74     2.514562772014    50.08943200    61.70854117
 C     80  79  75     4.541829063221    88.80854455    76.49656743
 H     81  80  79     2.042034439077   147.98207292   179.74255055
 C     78   1   2     2.540709446558   109.28598898   187.78713247
 C     79  75  74     2.630389766860   101.22276499   185.91504539
 H     84  79  75     2.044068968223   120.12222239   130.18409494
 C     78   1   2     2.512459350139   128.54496795   349.22345312
 C     80  79  75     2.530381736094   117.74726295    76.33114308
 C     84  79  75     2.621792734798   118.58377620   309.97299681
 H     88  84  79     2.045207285787   120.75921151   180.00968194
 H     76  74  73     2.044536005023   119.96174673   180.20377774
 H     79  75  74     2.049214623446   116.99558275   318.78169594
 H     73  72  48     2.043024724790   175.81794456    16.63631815
 H     86  78   1     2.046174268336   116.65774875    20.53278290

---------------------
BASIS SET INFORMATION
---------------------
There are 4 groups of distinct atoms

 Group   1 Type Ni  : 17s11p7d1f contracted to 6s4p4d1f pattern {842111/6311/4111/1}
 Group   2 Type N   : 11s6p2d1f contracted to 5s3p2d1f pattern {62111/411/11/1}
 Group   3 Type C   : 11s6p2d1f contracted to 5s3p2d1f pattern {62111/411/11/1}
 Group   4 Type H   : 5s1p contracted to 3s1p pattern {311/1}

Atom   0Ni   basis set group =>   1
Atom   1N    basis set group =>   2
Atom   2N    basis set group =>   2
Atom   3C    basis set group =>   3
Atom   4C    basis set group =>   3
Atom   5C    basis set group =>   3
Atom   6H    basis set group =>   4
Atom   7C    basis set group =>   3
Atom   8C    basis set group =>   3
Atom   9N    basis set group =>   2
Atom  10C    basis set group =>   3
Atom  11N    basis set group =>   2
Atom  12C    basis set group =>   3
Atom  13H    basis set group =>   4
Atom  14C    basis set group =>   3
Atom  15C    basis set group =>   3
Atom  16H    basis set group =>   4
Atom  17C    basis set group =>   3
Atom  18C    basis set group =>   3
Atom  19C    basis set group =>   3
Atom  20H    basis set group =>   4
Atom  21H    basis set group =>   4
Atom  22H    basis set group =>   4
Atom  23H    basis set group =>   4
Atom  24H    basis set group =>   4
Atom  25C    basis set group =>   3
Atom  26C    basis set group =>   3
Atom  27C    basis set group =>   3
Atom  28H    basis set group =>   4
Atom  29C    basis set group =>   3
Atom  30C    basis set group =>   3
Atom  31N    basis set group =>   2
Atom  32C    basis set group =>   3
Atom  33N    basis set group =>   2
Atom  34C    basis set group =>   3
Atom  35H    basis set group =>   4
Atom  36C    basis set group =>   3
Atom  37C    basis set group =>   3
Atom  38H    basis set group =>   4
Atom  39C    basis set group =>   3
Atom  40C    basis set group =>   3
Atom  41C    basis set group =>   3
Atom  42H    basis set group =>   4
Atom  43H    basis set group =>   4
Atom  44H    basis set group =>   4
Atom  45H    basis set group =>   4
Atom  46H    basis set group =>   4
Atom  47N    basis set group =>   2
Atom  48N    basis set group =>   2
Atom  49C    basis set group =>   3
Atom  50C    basis set group =>   3
Atom  51C    basis set group =>   3
Atom  52H    basis set group =>   4
Atom  53C    basis set group =>   3
Atom  54C    basis set group =>   3
Atom  55N    basis set group =>   2
Atom  56C    basis set group =>   3
Atom  57N    basis set group =>   2
Atom  58C    basis set group =>   3
Atom  59H    basis set group =>   4
Atom  60C    basis set group =>   3
Atom  61C    basis set group =>   3
Atom  62H    basis set group =>   4
Atom  63C    basis set group =>   3
Atom  64C    basis set group =>   3
Atom  65C    basis set group =>   3
Atom  66H    basis set group =>   4
Atom  67H    basis set group =>   4
Atom  68H    basis set group =>   4
Atom  69H    basis set group =>   4
Atom  70H    basis set group =>   4
Atom  71C    basis set group =>   3
Atom  72C    basis set group =>   3
Atom  73C    basis set group =>   3
Atom  74H    basis set group =>   4
Atom  75C    basis set group =>   3
Atom  76C    basis set group =>   3
Atom  77N    basis set group =>   2
Atom  78C    basis set group =>   3
Atom  79N    basis set group =>   2
Atom  80C    basis set group =>   3
Atom  81H    basis set group =>   4
Atom  82C    basis set group =>   3
Atom  83C    basis set group =>   3
Atom  84H    basis set group =>   4
Atom  85C    basis set group =>   3
Atom  86C    basis set group =>   3
Atom  87C    basis set group =>   3
Atom  88H    basis set group =>   4
Atom  89H    basis set group =>   4
Atom  90H    basis set group =>   4
Atom  91H    basis set group =>   4
Atom  92H    basis set group =>   4
---------------------------------
AUXILIARY/J BASIS SET INFORMATION
---------------------------------
There are 4 groups of distinct atoms

 Group   1 Type Ni  : 19s5p5d3f3g contracted to 8s5p5d2f3g pattern {121111111/11111/11111/21/111}
 Group   2 Type N   : 12s5p4d2f1g contracted to 6s4p3d1f1g pattern {711111/2111/211/2/1}
 Group   3 Type C   : 12s5p4d2f1g contracted to 6s4p3d1f1g pattern {711111/2111/211/2/1}
 Group   4 Type H   : 5s2p1d contracted to 3s1p1d pattern {311/2/1}

Atom   0Ni   basis set group =>   1
Atom   1N    basis set group =>   2
Atom   2N    basis set group =>   2
Atom   3C    basis set group =>   3
Atom   4C    basis set group =>   3
Atom   5C    basis set group =>   3
Atom   6H    basis set group =>   4
Atom   7C    basis set group =>   3
Atom   8C    basis set group =>   3
Atom   9N    basis set group =>   2
Atom  10C    basis set group =>   3
Atom  11N    basis set group =>   2
Atom  12C    basis set group =>   3
Atom  13H    basis set group =>   4
Atom  14C    basis set group =>   3
Atom  15C    basis set group =>   3
Atom  16H    basis set group =>   4
Atom  17C    basis set group =>   3
Atom  18C    basis set group =>   3
Atom  19C    basis set group =>   3
Atom  20H    basis set group =>   4
Atom  21H    basis set group =>   4
Atom  22H    basis set group =>   4
Atom  23H    basis set group =>   4
Atom  24H    basis set group =>   4
Atom  25C    basis set group =>   3
Atom  26C    basis set group =>   3
Atom  27C    basis set group =>   3
Atom  28H    basis set group =>   4
Atom  29C    basis set group =>   3
Atom  30C    basis set group =>   3
Atom  31N    basis set group =>   2
Atom  32C    basis set group =>   3
Atom  33N    basis set group =>   2
Atom  34C    basis set group =>   3
Atom  35H    basis set group =>   4
Atom  36C    basis set group =>   3
Atom  37C    basis set group =>   3
Atom  38H    basis set group =>   4
Atom  39C    basis set group =>   3
Atom  40C    basis set group =>   3
Atom  41C    basis set group =>   3
Atom  42H    basis set group =>   4
Atom  43H    basis set group =>   4
Atom  44H    basis set group =>   4
Atom  45H    basis set group =>   4
Atom  46H    basis set group =>   4
Atom  47N    basis set group =>   2
Atom  48N    basis set group =>   2
Atom  49C    basis set group =>   3
Atom  50C    basis set group =>   3
Atom  51C    basis set group =>   3
Atom  52H    basis set group =>   4
Atom  53C    basis set group =>   3
Atom  54C    basis set group =>   3
Atom  55N    basis set group =>   2
Atom  56C    basis set group =>   3
Atom  57N    basis set group =>   2
Atom  58C    basis set group =>   3
Atom  59H    basis set group =>   4
Atom  60C    basis set group =>   3
Atom  61C    basis set group =>   3
Atom  62H    basis set group =>   4
Atom  63C    basis set group =>   3
Atom  64C    basis set group =>   3
Atom  65C    basis set group =>   3
Atom  66H    basis set group =>   4
Atom  67H    basis set group =>   4
Atom  68H    basis set group =>   4
Atom  69H    basis set group =>   4
Atom  70H    basis set group =>   4
Atom  71C    basis set group =>   3
Atom  72C    basis set group =>   3
Atom  73C    basis set group =>   3
Atom  74H    basis set group =>   4
Atom  75C    basis set group =>   3
Atom  76C    basis set group =>   3
Atom  77N    basis set group =>   2
Atom  78C    basis set group =>   3
Atom  79N    basis set group =>   2
Atom  80C    basis set group =>   3
Atom  81H    basis set group =>   4
Atom  82C    basis set group =>   3
Atom  83C    basis set group =>   3
Atom  84H    basis set group =>   4
Atom  85C    basis set group =>   3
Atom  86C    basis set group =>   3
Atom  87C    basis set group =>   3
Atom  88H    basis set group =>   4
Atom  89H    basis set group =>   4
Atom  90H    basis set group =>   4
Atom  91H    basis set group =>   4
Atom  92H    basis set group =>   4
---------------------------------
AUXILIARY/C BASIS SET INFORMATION
---------------------------------
There are 4 groups of distinct atoms

 Group   1 Type Ni  : 11s9p8d6f5g2h contracted to 9s8p8d6f5g2h pattern {311111111/21111111/11111111/111111/11111/11}
 Group   2 Type N   : 8s6p5d3f1g contracted to 8s6p4d3f1g pattern {11111111/111111/2111/111/1}
 Group   3 Type C   : 8s6p5d3f1g contracted to 8s6p4d3f1g pattern {11111111/111111/2111/111/1}
 Group   4 Type H   : 4s3p2d contracted to 4s2p1d pattern {1111/21/2}

Atom   0Ni   basis set group =>   1
Atom   1N    basis set group =>   2
Atom   2N    basis set group =>   2
Atom   3C    basis set group =>   3
Atom   4C    basis set group =>   3
Atom   5C    basis set group =>   3
Atom   6H    basis set group =>   4
Atom   7C    basis set group =>   3
Atom   8C    basis set group =>   3
Atom   9N    basis set group =>   2
Atom  10C    basis set group =>   3
Atom  11N    basis set group =>   2
Atom  12C    basis set group =>   3
Atom  13H    basis set group =>   4
Atom  14C    basis set group =>   3
Atom  15C    basis set group =>   3
Atom  16H    basis set group =>   4
Atom  17C    basis set group =>   3
Atom  18C    basis set group =>   3
Atom  19C    basis set group =>   3
Atom  20H    basis set group =>   4
Atom  21H    basis set group =>   4
Atom  22H    basis set group =>   4
Atom  23H    basis set group =>   4
Atom  24H    basis set group =>   4
Atom  25C    basis set group =>   3
Atom  26C    basis set group =>   3
Atom  27C    basis set group =>   3
Atom  28H    basis set group =>   4
Atom  29C    basis set group =>   3
Atom  30C    basis set group =>   3
Atom  31N    basis set group =>   2
Atom  32C    basis set group =>   3
Atom  33N    basis set group =>   2
Atom  34C    basis set group =>   3
Atom  35H    basis set group =>   4
Atom  36C    basis set group =>   3
Atom  37C    basis set group =>   3
Atom  38H    basis set group =>   4
Atom  39C    basis set group =>   3
Atom  40C    basis set group =>   3
Atom  41C    basis set group =>   3
Atom  42H    basis set group =>   4
Atom  43H    basis set group =>   4
Atom  44H    basis set group =>   4
Atom  45H    basis set group =>   4
Atom  46H    basis set group =>   4
Atom  47N    basis set group =>   2
Atom  48N    basis set group =>   2
Atom  49C    basis set group =>   3
Atom  50C    basis set group =>   3
Atom  51C    basis set group =>   3
Atom  52H    basis set group =>   4
Atom  53C    basis set group =>   3
Atom  54C    basis set group =>   3
Atom  55N    basis set group =>   2
Atom  56C    basis set group =>   3
Atom  57N    basis set group =>   2
Atom  58C    basis set group =>   3
Atom  59H    basis set group =>   4
Atom  60C    basis set group =>   3
Atom  61C    basis set group =>   3
Atom  62H    basis set group =>   4
Atom  63C    basis set group =>   3
Atom  64C    basis set group =>   3
Atom  65C    basis set group =>   3
Atom  66H    basis set group =>   4
Atom  67H    basis set group =>   4
Atom  68H    basis set group =>   4
Atom  69H    basis set group =>   4
Atom  70H    basis set group =>   4
Atom  71C    basis set group =>   3
Atom  72C    basis set group =>   3
Atom  73C    basis set group =>   3
Atom  74H    basis set group =>   4
Atom  75C    basis set group =>   3
Atom  76C    basis set group =>   3
Atom  77N    basis set group =>   2
Atom  78C    basis set group =>   3
Atom  79N    basis set group =>   2
Atom  80C    basis set group =>   3
Atom  81H    basis set group =>   4
Atom  82C    basis set group =>   3
Atom  83C    basis set group =>   3
Atom  84H    basis set group =>   4
Atom  85C    basis set group =>   3
Atom  86C    basis set group =>   3
Atom  87C    basis set group =>   3
Atom  88H    basis set group =>   4
Atom  89H    basis set group =>   4
Atom  90H    basis set group =>   4
Atom  91H    basis set group =>   4
Atom  92H    basis set group =>   4
------------------------------------------------------------------------------
                           ORCA GTO INTEGRAL CALCULATION
                           -- RI-GTO INTEGRALS CHOSEN --
------------------------------------------------------------------------------
------------------------------------------------------------------------------
                   ___                                                        
                  /   \      - P O W E R E D   B Y -                         
                 /     \                                                     
                 |  |  |   _    _      __       _____    __    __             
                 |  |  |  | |  | |    /  \     |  _  \  |  |  /  |          
                  \  \/   | |  | |   /    \    | | | |  |  | /  /          
                 / \  \   | |__| |  /  /\  \   | |_| |  |  |/  /          
                |  |  |   |  __  | /  /__\  \  |    /   |      \           
                |  |  |   | |  | | |   __   |  |    \   |  |\   \          
                \     /   | |  | | |  |  |  |  | |\  \  |  | \   \       
                 \___/    |_|  |_| |__|  |__|  |_| \__\ |__|  \__/        
                                                                              
                      - O R C A' S   B I G   F R I E N D -                    
                                      &                                       
                       - I N T E G R A L  F E E D E R -                       
                                                                              
 v1 FN, 2020, v2 2021                                                         
------------------------------------------------------------------------------


Reading SHARK input file /scratch/dca0099.323469/Energy_S1_def_pyrazine_Nickel.SHARKINP.tmp ... ok
----------------------
SHARK INTEGRAL PACKAGE
----------------------

Number of atoms                             ...     93
Number of basis functions                   ...   2097
Number of shells                            ...    803
Maximum angular momentum                    ...      3
Integral batch strategy                     ... SHARK/LIBINT Hybrid
RI-J (if used) integral strategy            ... SPLIT-RIJ (Revised 2003 algorithm where possible)
Printlevel                                  ...      1
Contraction scheme used                     ... SEGMENTED contraction
Coulomb Range Separation                    ... NOT USED
Exchange Range Separation                   ... NOT USED
Finite Nucleus Model                        ... NOT USED
Auxiliary Coulomb fitting basis             ... AVAILABLE
   # of basis functions in Aux-J            ...   3381
   # of shells in Aux-J                     ...   1083
   Maximum angular momentum in Aux-J        ...      4
Auxiliary J/K fitting basis                 ... NOT available
Auxiliary Correlation fitting basis         ... AVAILABLE
   # of basis functions in Aux-C            ...   5222
   # of shells in Aux-C                     ...   1582
   Maximum angular momentum in Aux-C        ...      5
Auxiliary 'external' fitting basis          ... NOT available
Integral threshold                          ...     2.500000e-11
Primitive cut-off                           ...     2.500000e-12
Primitive pair pre-selection threshold      ...     2.500000e-12

Calculating pre-screening integrals         ... done (  2.0 sec) Dimension = 803
Organizing shell pair data                  ... done (  3.0 sec)
Shell pair information
Total number of shell pairs                 ...    322806
Shell pairs after pre-screening             ...    156995
Total number of primitive shell pairs       ...   1021781
Primitive shell pairs kept                  ...    296350
          la=0 lb=0:  37200 shell pairs
          la=1 lb=0:  46067 shell pairs
          la=1 lb=1:  14160 shell pairs
          la=2 lb=0:  22317 shell pairs
          la=2 lb=1:  14298 shell pairs
          la=2 lb=2:   3443 shell pairs
          la=3 lb=0:   9662 shell pairs
          la=3 lb=1:   6372 shell pairs
          la=3 lb=2:   2878 shell pairs
          la=3 lb=3:    598 shell pairs

Calculating one electron integrals          ... done (  3.4 sec)
Calculating RI/J V-Matrix + Cholesky decomp.... done (  1.6 sec)
Calculating RI/C V-Matrix + Cholesky decomp.... done (  3.2 sec)
Calculating Nuclear repulsion               ... done (  0.0 sec) ENN=   9697.440052813326 Eh

SHARK setup successfully completed in  17.7 seconds

Maximum memory used throughout the entire GTOINT-calculation: 1918.6 MB
-------------------------------------------------------------------------------
                                 ORCA SCF
-------------------------------------------------------------------------------

------------
SCF SETTINGS
------------
Hamiltonian:
 Ab initio Hamiltonian  Method          .... Hartree-Fock(GTOs)
 RI-approximation to the Coulomb term is turned on
   Number of AuxJ basis functions       .... 3381
   RIJ-COSX (HFX calculated with COS-X)).... on


General Settings:
 Integral files         IntName         .... /scratch/dca0099.323469/Energy_S1_def_pyrazine_Nickel
 Hartree-Fock type      HFTyp           .... RHF
 Total Charge           Charge          ....    0
 Multiplicity           Mult            ....    1
 Number of Electrons    NEL             ....  432
 Basis Dimension        Dim             .... 2097
 Nuclear Repulsion      ENuc            ....   9697.4400528133 Eh

Convergence Acceleration:
 DIIS                   CNVDIIS         .... on
   Start iteration      DIISMaxIt       ....    12
   Startup error        DIISStart       ....  0.200000
   # of expansion vecs  DIISMaxEq       ....     5
   Bias factor          DIISBfac        ....   1.050
   Max. coefficient     DIISMaxC        ....  10.000
 Trust-Rad. Augm. Hess. CNVTRAH         .... auto
   Auto Start mean grad. ratio tolernc. ....  1.125000
   Auto Start start iteration           ....    20
   Auto Start num. interpolation iter.  ....    10
   Max. Number of Micro iterations      ....    16
   Max. Number of Macro iterations      .... Maxiter - #DIIS iter
   Number of Davidson start vectors     ....     2
   Converg. threshold I  (grad. norm)   ....   1.000e-05
   Converg. threshold II (energy diff.) ....   1.000e-08
   Grad. Scal. Fac. for Micro threshold ....   0.100
   Minimum threshold for Micro iter.    ....   0.010
   NR start threshold (gradient norm)   ....   0.001
   Initial trust radius                 ....   0.400
   Minimum AH scaling param. (alpha)    ....   1.000
   Maximum AH scaling param. (alpha)    .... 1000.000
   Orbital update algorithm             .... Taylor
   White noise on init. David. guess    .... on
   Maximum white noise                  ....   0.010
   Quad. conv. algorithm                .... NR
 SOSCF                  CNVSOSCF        .... off
 Level Shifting         CNVShift        .... on
   Level shift para.    LevelShift      ....    0.2500
   Turn off err/grad.   ShiftErr        ....    0.0010
 Zerner damping         CNVZerner       .... off
 Static damping         CNVDamp         .... on
   Fraction old density DampFac         ....    0.7000
   Max. Damping (<1)    DampMax         ....    0.9800
   Min. Damping (>=0)   DampMin         ....    0.0000
   Turn off err/grad.   DampErr         ....    0.1000
 Fernandez-Rico         CNVRico         .... off

SCF Procedure:
 Maximum # iterations   MaxIter         ....   125
 SCF integral mode      SCFMode         .... Direct
   Integral package                     .... SHARK and LIBINT hybrid scheme
 Reset frequency        DirectResetFreq ....    20
 Integral Threshold     Thresh          ....  2.500e-11 Eh
 Primitive CutOff       TCut            ....  2.500e-12 Eh

Convergence Tolerance:
 Convergence Check Mode ConvCheckMode   .... Total+1el-Energy
 Convergence forced     ConvForced      .... 1
 Energy Change          TolE            ....  1.000e-08 Eh
 1-El. energy change                    ....  1.000e-05 Eh
 DIIS Error             TolErr          ....  5.000e-07


Diagonalization of the overlap matrix:
Smallest eigenvalue                        ... 9.917e-06
Time for diagonalization                   ...    2.692 sec
Threshold for overlap eigenvalues          ... 1.000e-08
Number of eigenvalues below threshold      ... 0
Time for construction of square roots      ...    1.005 sec
Total time needed                          ...    3.732 sec

Time for model grid setup =    9.782 sec

------------------------------
INITIAL GUESS: MODEL POTENTIAL
------------------------------
Loading Hartree-Fock densities                     ... done
Calculating cut-offs                               ... done
Initializing the effective Hamiltonian             ... done
Setting up the integral package (SHARK)            ... done
Starting the Coulomb interaction                   ... done (  43.3 sec)
Reading the grid                                   ... done
Mapping shells                                     ... done
Starting the XC term evaluation                    ... done (   6.2 sec)
Transforming the Hamiltonian                       ... done (   1.0 sec)
Diagonalizing the Hamiltonian                      ... done (   1.8 sec)
Back transforming the eigenvectors                 ... done (   0.4 sec)
Now organizing SCF variables                       ... done
                      ------------------
                      INITIAL GUESS DONE (  62.6 sec)
                      ------------------
--------------------
COSX GRID GENERATION
--------------------

GRIDX 1
-------
General Integration Accuracy     IntAcc      ... 3.816
Radial Grid Type                 RadialGrid  ... OptM3 with GC (2021)
Angular Grid (max. ang.)         AngularGrid ... 1 (Lebedev-50)
Angular grid pruning method      GridPruning ... 4 (adaptive)
Weight generation scheme         WeightScheme... Becke
Basis function cutoff            BFCut       ... 1.0000e-11
Integration weight cutoff        WCut        ... 1.0000e-14
Angular grids for H and He will be reduced by one unit
Partially contracted basis set               ... on
Rotationally invariant grid construction     ... off

Total number of grid points                  ...    58833
Total number of batches                      ...      953
Average number of points per batch           ...       61
Average number of grid points per atom       ...      633
UseSFitting                                  ... on

GRIDX 2
-------
General Integration Accuracy     IntAcc      ... 4.020
Radial Grid Type                 RadialGrid  ... OptM3 with GC (2021)
Angular Grid (max. ang.)         AngularGrid ... 2 (Lebedev-110)
Angular grid pruning method      GridPruning ... 4 (adaptive)
Weight generation scheme         WeightScheme... Becke
Basis function cutoff            BFCut       ... 1.0000e-11
Integration weight cutoff        WCut        ... 1.0000e-14
Angular grids for H and He will be reduced by one unit
Partially contracted basis set               ... on
Rotationally invariant grid construction     ... off

Total number of grid points                  ...   128048
Total number of batches                      ...     2043
Average number of points per batch           ...       62
Average number of grid points per atom       ...     1377
UseSFitting                                  ... on

GRIDX 3
-------
General Integration Accuracy     IntAcc      ... 4.338
Radial Grid Type                 RadialGrid  ... OptM3 with GC (2021)
Angular Grid (max. ang.)         AngularGrid ... 3 (Lebedev-194)
Angular grid pruning method      GridPruning ... 4 (adaptive)
Weight generation scheme         WeightScheme... Becke
Basis function cutoff            BFCut       ... 1.0000e-11
Integration weight cutoff        WCut        ... 1.0000e-14
Angular grids for H and He will be reduced by one unit
Partially contracted basis set               ... on
Rotationally invariant grid construction     ... off

Total number of grid points                  ...   279369
Total number of batches                      ...     4420
Average number of points per batch           ...       63
Average number of grid points per atom       ...     3004
UseSFitting                                  ... on

Time for X-Grid setup             =   47.505 sec


--------------------
CPCM SOLVATION MODEL
--------------------
CPCM parameters:
  Epsilon                                         ...       9.0800
  Refrac                                          ...       1.4240
  Rsolv                                           ...       1.3000
  Surface type                                    ... GAUSSIAN VDW
  Epsilon function type                           ...         CPCM
Radii:
 Radius for Ni used is    3.6963 Bohr (=   1.9560 Ang.)
 Radius for N  used is    3.5149 Bohr (=   1.8600 Ang.)
 Radius for C  used is    3.8550 Bohr (=   2.0400 Ang.)
 Radius for H  used is    2.4944 Bohr (=   1.3200 Ang.)
Calculating surface                               ...        done! (  0.0s)
GEPOL surface points                              ...         4689
GEPOL Volume                                      ...    5975.4167
GEPOL Surface-area                                ...    2745.8921
Calculating surface distance matrix               ...        done! (  0.4s)
Performing Cholesky decomposition & store         ...        done! (  1.3s)
Overall time for CPCM initialization              ...                 1.7s
--------------
SCF ITERATIONS
--------------
ITER       Energy         Delta-E        Max-DP      RMS-DP      [F,P]     Damp
               ***  Starting incremental Fock matrix formation  ***
  0  -3994.6852299069   0.000000000000 0.29392929  0.00190941  0.4878057 0.7000
  1  -3994.9111171275  -0.225887220562 0.09266957  0.00060697  0.4226112 0.7000
                               ***Turning on DIIS***
  2  -3995.7184432124  -0.807326084950 0.07094001  0.00047431  0.1408928 0.7000
  3  -3995.8124024925  -0.093959280030 0.09690300  0.00038901  0.2060600 0.7000
  4  -4000.8901408423  -5.077738349830 0.23223913  0.00096462  0.0752442 0.0000
  5  -3997.5322632505   3.357877591764 0.02045786  0.00015788  0.0315745 0.0000
  6  -3997.1870344676   0.345228782929 0.01209128  0.00008005  0.0094446 0.0000
  7  -3997.1214717024   0.065562765172 0.01074383  0.00005612  0.0090847 0.0000
  8  -3997.1009132810   0.020558421422 0.00827409  0.00003686  0.0049597 0.0000
  9  -3997.1708117469  -0.069898465911 0.01070755  0.00002984  0.0083382 0.0000
 10  -3996.9565107362   0.214301010686 0.00413950  0.00001341  0.0083693 0.0000
 11  -3996.8085893707   0.147921365524 0.00279080  0.00000843  0.0143365 0.0000
 12  -3996.7233788137   0.085210557055 0.00114364  0.00000551  0.0165174 0.0000
 13  -3996.6936473977   0.029731416003 0.00635542  0.00001429  0.0183818 0.0000
 14  -3996.6107801418   0.082867255891 0.00515720  0.00001257  0.0219140 0.0000
 15  -3996.5231625756   0.087617566170 0.00146917  0.00000683  0.0243876 0.0000
 16  -3996.5422898181  -0.019127242460 0.00127374  0.00000628  0.0255377 0.0000
 17  -3996.6533862903  -0.111096472289 0.00522331  0.00001314  0.0232926 0.0000
 18  -3996.8856057531  -0.232219462756 0.01302130  0.00003299  0.0162463 0.0000
 19  -3996.8490502298   0.036555523313 0.00441496  0.00001190  0.0150282 0.0000
               *** Restarting incremental Fock matrix formation ***
                                   *** Resetting DIIS ***

 WARNING: the maximum gradient error descreased on average only by a factor   1.0
          during the last 20 iterations

                      *** Initiating the TRAH-SCF procedure ***


TRAH GRIDX
----------

General Integration Accuracy     IntAcc      ... 3.067
Radial Grid Type                 RadialGrid  ... OptM3 with GC (2021)
Angular Grid (max. ang.)         AngularGrid ... 1 (Lebedev-50)
Angular grid pruning method      GridPruning ... 4 (adaptive)
Weight generation scheme         WeightScheme... Becke
Basis function cutoff            BFCut       ... 1.0000e-11
Integration weight cutoff        WCut        ... 1.0000e-14
Angular grids for H and He will be reduced by one unit
Partially contracted basis set               ... on
Rotationally invariant grid construction     ... off

Total number of grid points                  ...    31763
Total number of batches                      ...      546
Average number of points per batch           ...       58
Average number of grid points per atom       ...      342

 --------------------------------------------------------------------------------------------
   Iter.        energy            ||Error||_2        Shift      TRadius  Mac/Mic        Rej.
 --------------------------------------------------------------------------------------------
    0      -3997.121387059850     2.541152e-01                     0.400 (TRAH MAcro)   No
    0     dE    -3.382156e-04     5.889148e-01    -6.7643e-04      0.003 (TRAH MIcro)
    0     dE    -5.562403e-03     5.013197e-01    -1.0999e-02      0.107 (TRAH MIcro)
    0     dE    -4.936098e-02     5.275670e-01    -6.9268e-01      0.318 (TRAH MIcro)
    0     dE    -6.078286e-02     1.105498e-01    -7.5328e-01      0.346 (TRAH MIcro)
    0     dE    -6.157642e-02     9.435188e-02    -7.5938e-01      0.347 (TRAH MIcro)
    0     dE    -6.115334e-02     9.340792e-03    -7.6017e-01      0.345 (TRAH MIcro)
    1      -3997.177388287831     2.798321e-01                     0.480 (TRAH MAcro)   No
    1     dE    -3.779337e-03     4.549372e-01    -7.5532e-03      0.027 (TRAH MIcro)
    1     dE    -9.031983e-02     1.107841e+00    -3.8235e-01      0.465 (TRAH MIcro)
    1     dE    -1.247380e-01     2.202221e-01    -6.3936e-01      0.475 (TRAH MIcro)
    1     dE    -1.296528e-01     9.534797e-02    -6.5990e-01      0.480 (TRAH MIcro)
    1     dE    -1.302337e-01     1.874338e-02    -6.6442e-01      0.480 (TRAH MIcro)
    1     dE    -1.302569e-01     6.630356e-03    -6.6438e-01      0.480 (TRAH MIcro)
    2      -3997.275913865472     2.457713e-01                     0.576 (TRAH MAcro)   No
    2     dE    -1.651826e-03     3.209493e-01    -3.3031e-03      0.013 (TRAH MIcro)
    2     dE    -1.588907e-02     2.871059e-01    -3.0622e-02      0.194 (TRAH MIcro)
    2     dE    -1.945575e-02     7.983394e-02    -3.6667e-02      0.247 (TRAH MIcro)
    2     dE    -2.005486e-02     3.780685e-02    -3.7603e-02      0.258 (TRAH MIcro)
    2     dE    -2.017618e-02     1.546228e-02    -3.7784e-02      0.261 (TRAH MIcro)
    2     dE    -2.020801e-02     1.078432e-02    -3.7826e-02      0.262 (TRAH MIcro)
    2     dE    -2.065795e-02     1.092577e-01    -3.8068e-02      0.292 (TRAH MIcro)
    2     dE    -1.814990e-02     2.737766e-02    -2.4234e-01      0.187 (TRAH MIcro)
    2     dE    -1.809955e-02     1.511111e-02    -2.4362e-01      0.184 (TRAH MIcro)
    2     dE    -1.810172e-02     3.329740e-03    -2.4371e-01      0.184 (TRAH MIcro)
    3      -3997.293647216949     8.360952e-02                     0.691 (TRAH MAcro)   No
    3     dE    -1.771927e-04     8.980609e-02    -3.5438e-04      0.004 (TRAH MIcro)
    3     dE    -1.291857e-03     6.393604e-02    -2.5761e-03      0.055 (TRAH MIcro)
    3     dE    -1.494114e-03     2.231882e-02    -2.9740e-03      0.069 (TRAH MIcro)
    3     dE    -1.540015e-03     1.637453e-02    -3.0630e-03      0.075 (TRAH MIcro)
    3     dE    -6.335864e-03     5.071893e-01    -1.5190e-02      0.691 (TRAH MIcro)
    3     dE    -1.500044e-03     7.930649e-03    -1.8282e-01      0.059 (TRAH MIcro)
    4      -3997.295167108029     1.528552e-02                     0.829 (TRAH MAcro)   No
    4     dE    -7.830112e-06     1.063979e-01    -1.5660e-05      0.001 (TRAH MIcro)
    4     dE    -3.527952e-04     7.904817e-02    -7.0238e-04      0.068 (TRAH MIcro)
    4     dE    -3.188706e-02     1.294510e+00    -8.3902e-02      0.829 (TRAH MIcro)
    4     dE    -5.619489e-02     2.374774e-01    -1.5707e-01      0.829 (TRAH MIcro)
    4     dE    -5.832095e-02     1.058329e-01    -1.6315e-01      0.829 (TRAH MIcro)
    4     dE    -5.884662e-02     4.342231e-02    -1.6471e-01      0.829 (TRAH MIcro)
    4     dE    -5.893761e-02     1.908161e-02    -1.6496e-01      0.829 (TRAH MIcro)
    4     dE    -5.899217e-02     3.778991e-02    -1.6512e-01      0.829 (TRAH MIcro)
    4     dE    -5.903091e-02     2.955256e-02    -1.6524e-01      0.829 (TRAH MIcro)
    4     dE    -5.906283e-02     1.074838e-02    -1.6532e-01      0.829 (TRAH MIcro)
    4     dE    -5.907202e-02     4.783714e-03    -1.6535e-01      0.829 (TRAH MIcro)
    4     dE    -5.907382e-02     2.978049e-03    -1.6536e-01      0.829 (TRAH MIcro)
    4     dE    -5.907402e-02     1.398534e-03    -1.6536e-01      0.829 (TRAH MIcro)
    5      -3997.305309711873     3.256568e-01                     0.581 (TRAH MAcro)   No
    5     dE    -6.569563e-03     3.734473e-01    -1.3118e-02      0.040 (TRAH MIcro)
    5     dE    -1.025927e-02     7.302469e-02    -2.0388e-02      0.080 (TRAH MIcro)
    5     dE    -1.053109e-02     3.328169e-02    -2.0901e-02      0.088 (TRAH MIcro)
    5     dE    -1.059075e-02     1.547198e-02    -2.1007e-02      0.091 (TRAH MIcro)
    5     dE    -1.060294e-02     9.332835e-03    -2.1029e-02      0.092 (TRAH MIcro)
    6      -3997.316085150998     1.355263e-02                     0.697 (TRAH MAcro)   No
    6     dE    -1.121605e-06     4.419718e-02    -2.2432e-06      0.000 (TRAH MIcro)
    6     dE    -9.353000e-05     3.340861e-02    -1.8697e-04      0.022 (TRAH MIcro)
    6     dE    -1.091114e-04     9.581086e-03    -2.1805e-04      0.028 (TRAH MIcro)
    6     dE    -1.147622e-04     4.506860e-03    -2.2931e-04      0.031 (TRAH MIcro)
    6     dE    -1.166475e-04     4.124924e-03    -2.3306e-04      0.032 (TRAH MIcro)
    6     dE    -1.197347e-04     7.371314e-03    -2.3921e-04      0.033 (TRAH MIcro)
    6     dE    -1.272144e-04     7.470081e-03    -2.5408e-04      0.037 (TRAH MIcro)
    6     dE    -1.360486e-04     7.095619e-03    -2.7151e-04      0.046 (TRAH MIcro)
    6     dE    -1.472235e-04     1.048053e-02    -2.9322e-04      0.065 (TRAH MIcro)
    6     dE    -2.164463e-03     2.267488e-01    -1.4098e-02      0.515 (TRAH MIcro)
    6     dE    -7.305266e-03     1.074136e-01    -3.5672e-02      0.630 (TRAH MIcro)
    6     dE    -1.051692e-02     1.102905e-01    -4.2472e-02      0.697 (TRAH MIcro)
    6     dE    -1.094259e-02     3.375298e-02    -4.4262e-02      0.697 (TRAH MIcro)
    6     dE    -1.011369e-02     1.977064e-02    -4.4731e-02      0.666 (TRAH MIcro)
 ---------------------------------
          TRAH Step control 
 ---------------------------------
  predicted energy change = -0.010114
  actual energy  change   = 0.000165
  energy change ratio     = -0.016361
  old trust radius        = 0.696730
  new trust radius        = 0.487711
  reject step?            =  1
    7      -3997.316085150998     3.256568e-01                     0.488 (TRAH MAcro)  Yes
    8      -3997.316085151001     1.355263e-02                     0.488 (TRAH MAcro)   No
    8     dE    -1.119775e-06     4.419558e-02    -2.2396e-06      0.000 (TRAH MIcro)
    8     dE    -9.352936e-05     3.341218e-02    -1.8697e-04      0.022 (TRAH MIcro)
    8     dE    -1.091132e-04     9.580700e-03    -2.1806e-04      0.028 (TRAH MIcro)
    8     dE    -1.147642e-04     4.506931e-03    -2.2931e-04      0.031 (TRAH MIcro)
    8     dE    -1.166497e-04     4.124462e-03    -2.3306e-04      0.032 (TRAH MIcro)
    8     dE    -1.197367e-04     7.371312e-03    -2.3922e-04      0.033 (TRAH MIcro)
    8     dE    -1.272161e-04     7.471140e-03    -2.5408e-04      0.037 (TRAH MIcro)
    8     dE    -1.360488e-04     7.093758e-03    -2.7151e-04      0.046 (TRAH MIcro)
    8     dE    -1.472183e-04     1.047801e-02    -2.9321e-04      0.065 (TRAH MIcro)
    8     dE    -1.969362e-03     2.142660e-01    -1.4175e-02      0.488 (TRAH MIcro)
    8     dE    -4.466151e-03     8.254262e-02    -3.5855e-02      0.488 (TRAH MIcro)
    8     dE    -1.333199e-04     2.117961e-03    -5.6331e-02      0.033 (TRAH MIcro)
    8     dE    -1.348411e-04     7.688263e-04    -5.6435e-02      0.034 (TRAH MIcro)
    9      -3997.316220407977     2.256068e-03                     0.585 (TRAH MAcro)   No
    9     dE    -6.703263e-07     2.319310e-02    -1.3407e-06      0.001 (TRAH MIcro)
    9     dE    -1.172102e-05     7.968187e-03    -2.3439e-05      0.012 (TRAH MIcro)
    9     dE    -2.115057e-05     1.068410e-02    -4.2280e-05      0.023 (TRAH MIcro)
    9     dE    -2.570742e-03     4.001179e-01    -1.7613e-02      0.500 (TRAH MIcro)
    9     dE    -3.317646e-03     6.958125e-02    -4.0263e-02      0.390 (TRAH MIcro)
    9     dE    -4.825530e-03     6.740781e-02    -4.5074e-02      0.449 (TRAH MIcro)
    9     dE    -5.041108e-03     1.398211e-02    -4.5641e-02      0.456 (TRAH MIcro)
    9     dE    -5.143490e-03     1.605201e-02    -4.5897e-02      0.460 (TRAH MIcro)
    9     dE    -5.272610e-03     3.119105e-02    -4.6158e-02      0.464 (TRAH MIcro)
    9     dE    -5.434007e-03     1.895014e-02    -4.6435e-02      0.470 (TRAH MIcro)
    9     dE    -5.548161e-03     7.920761e-03    -4.6599e-02      0.475 (TRAH MIcro)
    9     dE    -5.596281e-03     4.816956e-03    -4.6662e-02      0.476 (TRAH MIcro)
    9     dE    -5.612359e-03     2.419618e-03    -4.6680e-02      0.477 (TRAH MIcro)
    9     dE    -5.618860e-03     2.788401e-03    -4.6686e-02      0.477 (TRAH MIcro)
   10      -3997.318864130474     1.418968e-01                     0.585 (TRAH MAcro)   No
   10     dE    -9.067718e-04     2.905049e-01    -1.8132e-03      0.013 (TRAH MIcro)
   10     dE    -1.830780e-03     9.847644e-02    -3.6560e-03      0.039 (TRAH MIcro)
   10     dE    -2.257758e-03     7.200017e-02    -4.4937e-03      0.070 (TRAH MIcro)
   10     dE    -2.905504e-03     1.544143e-01    -5.6878e-03      0.147 (TRAH MIcro)
   10     dE    -3.832579e-03     5.476548e-02    -7.1683e-03      0.263 (TRAH MIcro)
   10     dE    -4.242192e-03     5.869558e-02    -7.7304e-03      0.312 (TRAH MIcro)
   10     dE    -4.402185e-03     2.079251e-02    -7.9336e-03      0.331 (TRAH MIcro)
   10     dE    -4.442601e-03     1.562771e-02    -7.9823e-03      0.336 (TRAH MIcro)
   10     dE    -4.455331e-03     7.202217e-03    -7.9976e-03      0.338 (TRAH MIcro)
   11      -3997.323450910194     7.735032e-02                     0.702 (TRAH MAcro)   No
   11     dE    -2.527474e-04     3.852152e-01    -5.0547e-04      0.007 (TRAH MIcro)
[...]

 PNO Occupation Number Statistics: 
  | Av. % of trace(Dij) retained        ...  95.858340338639
  | sigma^2 in % of trace(Dij) retained ...   1.97e+01
  | Av. % of trace(Di) retained         ...  99.998750922150
  | sigma^2 in % of trace(Di) retained  ...   1.76e-07
 Distributions of % trace(Dij) recovered:
  |       >= 99.9  ...   477 ( 11.3 % of all pairs)
  |   [50.0, 60.0) ...     1 (  0.0 % of all pairs)
  |   [60.0, 70.0) ...     4 (  0.1 % of all pairs)
  |   [70.0, 80.0) ...    48 (  1.1 % of all pairs)
  |   [80.0, 90.0) ...   316 (  7.5 % of all pairs)
  |   [90.0, 99.0) ...  2655 ( 63.0 % of all pairs)
  |   [99.0, 99.9) ...   710 ( 16.9 % of all pairs)
 Distributions of % trace(Di) recovered :
  |       >= 99.9  ...   151 (100.0 % of all I-pairs )

Making pair pair interaction lists          ... done

                       ===========================
                       1976 OF 4211 PAIRS ARE KEPT
                       ===========================

Total time spent in the initial guess                 ...  3147.992 sec
SL-MP2 correlation energy (all non-screened pairs)    ...      -9.830088313592 Eh

Initial PNO correlation energy                        ...      -9.716739997852 Eh
sum of pair energies estimated for screened out pairs ...      -0.013902178761 Eh
sum of MP2 pair energies for pairs that were not kept ...      -0.076832228921 Eh
sum of PNO error estimates for the kept pairs         ...      -0.036702712476 Eh
                                                          --------------------
sum of all corrections                                         -0.127437120158
Initial total correlation energy                               -9.844177118010
Thresholds for map construction and integral transformation for fine MP2 and CCSD(T) calculation:
   TCutMKN   ...     1.0e-03
   TCutDO    ...     1.0e-02
   TCutPairs ...     1.0e-04
   TCutCMO   ...     1.0e-03
   TCutCPAO  ...     1.0e-03

Time for aux screen maps:            0.039
Time for maps after fine MP2:            0.320
-----------------------------
LOCAL RI TRANSFORMATION (IJV)
-----------------------------

Orbital window:      65 to 215
Basis functions:   2097 (803 shells)
Aux. functions:    5222 (1582 shells)
Use SHARK:           on

Processing maps (0.0 sec)
Average map sizes:
   Aux shells -> MOs(i)           72.2
   Aux shells -> MOs(j)          151.0
   MOs        -> AO shells       672.6

Calculating integrals (549.1 sec, 450.700 MB)
Sorting integrals (0.9 sec, 443.350 MB)
Total time for the integral transformation: 550.1 sec
--------------------------------
LOCAL RI TRANSFORMATION (VABPAO)
--------------------------------

Number of PAOs:    2097
Basis functions:   2097 (803 shells)
Aux. functions:    5222 (1582 shells)
Use SHARK:           on

Processing maps (0.0 sec)
Average map sizes:
   Aux shells -> PAOs           1632.6
   PAOs       -> AO shells       778.2

Calculating integrals (3898.4 sec, 115076.089 MB)
Finished


-------------------------------------
Pair Pair Term precalculation with     
RI-(ij|mn) and (im|jn) transformation  
ON THE FLY                             
-------------------------------------

   IBatch   1 (of   7)              ... done ( 3153.194 sec)
   IBatch   2 (of   7)              ... done ( 3639.839 sec)
   IBatch   3 (of   7)              ... done ( 4181.488 sec)
   IBatch   4 (of   7)              ... done ( 4022.571 sec)
   IBatch   5 (of   7)              ... done ( 4549.662 sec)
   IBatch   6 (of   7)              ... done ( 5588.103 sec)
   IBatch   7 (of   7)              ... done ( 9239.064 sec)
Total EXT                           ...       34373.922 sec

---------------------
RI-PNO TRANSFORMATION
---------------------

Total Number of PNOs                   ... 66250
Average number of PNOs per pair        ...    33
Maximal number of PNOs per pair        ...    85
   #pairs with  1 -  5 PNOs   :    0
   #pairs with  6 - 10 PNOs   :   96
   #pairs with 11 - 15 PNOs   :  215
   #pairs with 16 - 20 PNOs   :  261
   #pairs with 21 - 25 PNOs   :  226
   #pairs with 26 - 30 PNOs   :  179
   #pairs with 31 - 35 PNOs   :  197
   #pairs with 36 - 40 PNOs   :  139
   #pairs with 41 - 45 PNOs   :  175
   #pairs with 46 - 50 PNOs   :  119
   #pairs with 51 - 55 PNOs   :  104
   #pairs with 56 - 60 PNOs   :   95
   #pairs with 61 - 65 PNOs   :   45
   #pairs with 66 - 70 PNOs   :   62
   #pairs with 71 - 75 PNOs   :   44
   #pairs with 76 - 80 PNOs   :   18
   #pairs with 81 - 85 PNOs   :    1

Generation of (ij|ab)[P] integrals            ... on
Generation of (ia|bc)[P],(ja|bc)[P] integrals ... on
Storage of 3 and 4 external integrals         ... on
Generation of ALL (ka|bc)[P] integrals        ... on
Keep RI integrals in memory                   ... off

Ibatch:  1 (of  2)
Starting 2-4 index PNO integral generation ... done

Ibatch:  2 (of  2)
Starting 2-4 index PNO integral generation ... done

Timings:
Total PNO integral transformation time     ...      14178.508 sec
Size of the 3-external file                ...      1098 MB
Size of the 4-external file                ...      7749 MB
Size of the IKJL file                      ...        47 MB
Size of the all 3-external file            ...     51610 MB
Size of the 1-external file                ...       148 MB

Making pair/pair overlap matrices          ... done ( 3976.694 sec)
Size of the pair overlap file              ... 17134 MB
Redoing the guess amplitudes               ... done (    2.999 sec)

-------------------------
FINAL STARTUP INFORMATION
-------------------------

E(0)                                       ...  -3997.325189404
E(SL-MP2)                                  ...     -9.830088314
E(SL-MP2) including corrections            ...     -9.844177118
Initial E(tot)                             ...  -4007.169366522
<T|T>                                      ...      2.846965990
Number of pairs included                   ... 1976
Total number of pairs                      ... 11476

------------------------------------------------
                  RHF COUPLED CLUSTER ITERATIONS
------------------------------------------------

Number of PNO amplitudes to be optimized   ...      2823858
Number of non-PNO amplitudes               ...   6991406136
Untruncated number of regular amplitudes   ...  40603935636

Iter       E(tot)           E(Corr)          Delta-E          Residual     Time
  0  -4007.169753491     -9.717126966      0.112961347      0.025847980 2001.76
                           *** Turning on DIIS ***
  1  -4007.379252135     -9.926625611     -0.209498644      0.020279854 1349.40
  2  -4007.614747743    -10.162121218     -0.235495608      0.013027934 1385.44
  3  -4007.677217877    -10.224591352     -0.062470134      0.010989734 1382.81
  4  -4007.697903358    -10.245276833     -0.020685481      0.005187965 1381.33
  5  -4007.710623393    -10.257996868     -0.012720035      0.004289795 1380.78
  6  -4007.715333035    -10.262706510     -0.004709642      0.003055845 1390.19
  7  -4007.716337389    -10.263710864     -0.001004354      0.001727140 1393.01
  8  -4007.716459384    -10.263832859     -0.000121995      0.001549360 1391.84
  9  -4007.716615309    -10.263988785     -0.000155925      0.000720355 1391.62
 10  -4007.716358152    -10.263731628      0.000257157      0.000448587 1391.77
 11  -4007.716289838    -10.263663314      0.000068314      0.000434168 1394.12
 12  -4007.716232709    -10.263606185      0.000057129      0.000365479 1391.95
 13  -4007.716205603    -10.263579078      0.000027107      0.000342455 1392.17
 14  -4007.716186040    -10.263559515      0.000019563      0.000300412 1393.02
 15  -4007.716160638    -10.263534114      0.000025401      0.000282994 1391.68
 16  -4007.716138095    -10.263511570      0.000022544      0.000259060 1392.32
 17  -4007.716109295    -10.263482770      0.000028800      0.000217932 1392.73
 18  -4007.716092692    -10.263466167      0.000016603      0.000181796 1391.78
 19  -4007.716095628    -10.263469103     -0.000002936      0.000130475 1392.81
 20  -4007.716111964    -10.263485439     -0.000016336      0.000094019 1392.05
 21  -4007.716132070    -10.263505546     -0.000020107      0.000068026 1393.11
 22  -4007.716144199    -10.263517674     -0.000012128      0.000045412 1394.22
 23  -4007.716146190    -10.263519665     -0.000001991      0.000033798 1394.60
 24  -4007.716142852    -10.263516327      0.000003338      0.000021597 1392.10
 25  -4007.716137178    -10.263510653      0.000005674      0.000015995 1392.31
 26  -4007.716134182    -10.263507657      0.000002996      0.000018877 1391.94
 27  -4007.716133713    -10.263507188      0.000000468      0.000015584 1391.68
 28  -4007.716134233    -10.263507708     -0.000000520      0.000016152 1393.93
 29  -4007.716135440    -10.263508915     -0.000001207      0.000013414 1392.12
 30  -4007.716136468    -10.263509943     -0.000001028      0.000014100 1393.19
 31  -4007.716136700    -10.263510175     -0.000000232      0.000012252 1392.37
 32  -4007.716136604    -10.263510079      0.000000096      0.000011887 1392.71
 33  -4007.716135760    -10.263509236      0.000000844      0.000009743 1392.43
               --- The Coupled-Cluster iterations have converged ---

----------------------
COUPLED CLUSTER ENERGY
----------------------

E(0)                                       ...  -3997.325189404
E(CORR)(strong-pairs)                      ...    -10.263509236
E(CORR)(weak-pairs)                        ...     -0.127437120
E(CORR)(corrected)                         ...    -10.390946356
E(TOT)                                     ...  -4007.716135760
Singles Norm <S|S>**1/2                    ...      0.237434795  
T1 diagnostic                              ...      0.013662837  

------------------
LARGEST AMPLITUDES
------------------
  83->217  -1-> -1       0.070070
 114->221 114->221       0.047315
 146->221 146->221       0.046420
 144->220 144->220       0.045102
 177->220 177->220       0.045041
 210->220 210->220       0.045032
 113->220 113->220       0.044834
 112->220 112->220       0.044718
 212->221 212->221       0.044489
 179->221 179->221       0.044447
 145->220 145->220       0.044014
  95->219  95->219       0.044004
 199->220 199->220       0.043724
 166->220 166->220       0.043702
 161->219 161->219       0.043283
 194->219 194->219       0.042872


-------------------------------------------
DLPNO BASED TRIPLES CORRECTION
-------------------------------------------

Singles multiplier          ...  1.000000
TCutTNO                     ... 1.000e-09
TCutMP2Pairs                ... 1.000e-05
TCutDOStrong                ... 2.000e-02
TCutMKNStrong               ... 1.000e-02
TCutDOWeak                  ... 4.000e-02
TCutMKNWeak                 ... 1.000e-01

Fragment selection                          .... not used
Number of Triples that are to be computed   ...     27946

 . . . . . . . . .
10% done               (  12644.357 sec)
 . . . . . . . . .
20% done  
30% done               (  14172.389 sec)
 . . . . . . . . .
40% done  
50% done               (  16241.061 sec)
 . . . . . . . . .
60% done  
70% done  
80% done  
90% done               (  22544.120 sec)
 . . . . . . . . .             (   4787.893 sec)
Triples timings:
Total time for T0               ... 74625.081 sec
Total time for Iterative (T)    ...     0.000 sec
Total time of overall (T)       ... 74625.089 sec

Triples List generation         ...     0.011 sec
TNO generation                  ...  4234.295 sec
Pair density generation         ...     0.058 sec
Look up tables                  ...     0.002 sec
Generating 3-index integrals    ... 47342.633 sec
  Make 4-ind.int. from 3-ind.int...  2617.526 sec
  Projecting amplitudes (D + S) ... 17507.098 sec
  Downprojecting integrals      ...     0.401 sec
  Energy contr. (sum over a,b,c)...  1238.508 sec
Fitting ET(->0)                 ...     0.000 sec

Everything after 3-index        ... 23047.188 sec

Timing details:
 TNO integrals                  ... 49743.166 sec
   Reading 3-index integrals    ...  4563.113 sec
   Sorting integrals            ...  5551.711 sec
       Sorting integrals 1      ...     0.417 sec
       Sorting integrals 2      ...  4549.881 sec
       Sorting integrals 3      ...    80.958 sec
       Sorting integrals 4      ...    17.181 sec
       Sorting integrals 5      ...    66.964 sec
       Sorting integrals 6      ...   836.311 sec
   Calculating local VM**-1/2   ...   252.285 sec
   Orthogonal. integrals        ...   226.455 sec
   Multipl. 3-index integrals   ... 39149.602 sec
   All concerning IRIab (w/TNO) ...  1177.541 sec

 Calculate W0/W1                ...  1680.635 sec
 W 3-ext contribution           ...   791.951 sec
 W 3-int contribution           ...   468.127 sec
 Sorting W                      ...   362.357 sec

 V exchange contribution        ...   569.414 sec

 Timings for Triples without generation
     of 3-index integrals       ... 23046.662 sec
       0 weak pairs             ... 14150.338 sec
       1 weak pair              ...  8896.325 sec
       2 weak pairs             ...     0.000 sec
       3 weak pairs             ...     0.000 sec
  Extra time for extrapolation  ...     0.000 sec

Number of Triples   (0, 1, 2, 3 weak pairs; overall):  13659   14287       0       0  ( 27946)
Number of Atoms     (0, 1, 2, 3 weak pairs; overall):   18.9    14.7     0.0     0.0  (    93)
Number of PAOs      (0, 1, 2, 3 weak pairs; overall):  520.0   426.6     0.0     0.0  (  2097)
Number of AuxFcns   (0, 1, 2, 3 weak pairs; overall):  651.2   414.8     0.0     0.0  (  5222)
Number of TNOs      (0, 1, 2, 3 weak pairs         ):   92.8    63.5     0.0     0.0
Aver. Number of NTNO, Atoms, PAOs, AuxFcns / Triples:  27946    77.8    16.8   472.3   530.4

Triples Correction (T)                     ...     -0.530170926
Final correlation energy                   ...    -10.921117282
E(CCSD)                                    ...  -4007.716135760
E(CCSD(T))                                 ...  -4008.246306686



--------------------------------------------------------------------------------
                                    TIMINGS
--------------------------------------------------------------------------------


Total execution time                   ...   188182.458 sec

Localization of occupied MO's          ...       64.388 sec (  0.0%)
Fock Matrix Formation                  ...     1357.984 sec (  0.7%)
Global overlap, Fock, MKN matrices     ...       11.266 sec (  0.0%)
Differential overlap integrals         ...      167.314 sec (  0.1%)
Organizing maps                        ...        0.915 sec (  0.0%)
RI 3-index integral generations        ...     6075.637 sec (  3.2%)
RI-PNO integral transformation         ...    52543.944 sec ( 27.9%)
Initial Guess                          ...     5451.948 sec (  2.9%)
DIIS Solver                            ...        7.751 sec (  0.0%)
State Vector Update                    ...        0.573 sec (  0.0%)
Sigma-vector construction              ...    47862.949 sec ( 25.4%)
  <0|H|D>                              ...        0.180 sec (  0.0% of sigma)
  <0|H|S>                              ...        0.003 sec (  0.0% of sigma)
  <D|H|D>(0-ext)                       ...     3529.188 sec (  7.4% of sigma)
  <D|H|D>(2-ext Fock)                  ...        4.075 sec (  0.0% of sigma)
  <D|H|D>(2-ext)                       ...     9554.522 sec ( 20.0% of sigma)
  <D|H|D>(4-ext)                       ...     2375.465 sec (  5.0% of sigma)
  <D|H|D>(4-ext-corr)                  ...    18642.422 sec ( 38.9% of sigma)
  CCSD doubles correction              ...       67.208 sec (  0.1% of sigma)
  <S|H|S>                              ...      356.439 sec (  0.7% of sigma)
  <S|H|D>(1-ext)                       ...      342.394 sec (  0.7% of sigma)
  <D|H|S>(1-ext)                       ...        6.931 sec (  0.0% of sigma)
  <S|H|D>(3-ext)                       ...       57.319 sec (  0.1% of sigma)
  CCSD singles correction              ...        0.136 sec (  0.0% of sigma)
  Fock-dressing                        ...    10228.226 sec ( 21.4% of sigma)
  Singles amplitudes                   ...       50.280 sec (  0.1% of sigma)
  (ik|jl)-dressing                     ...     2304.298 sec (  4.8% of sigma)
  (ij|ab),(ia|jb)-dressing             ...      336.992 sec (  0.7% of sigma)
  Pair energies                        ...        1.124 sec (  0.0% of sigma)
Total Time for computing (T)           ...    74626.641 sec ( 39.7% of ALL)


Maximum memory used throughout the entire MDCI-calculation: 124702.8 MB

-------------------------   --------------------
FINAL SINGLE POINT ENERGY     -4008.246306686296
-------------------------   --------------------


                            ***************************************
                            *     ORCA property calculations      *
                            ***************************************


  WARNING: The energy has been calculated at the MDCI level but the densities
           used in the property calculations are still SCF densities
           MDCI response densities have not been calculated 
           use %mdci Density linearized end
           or  %mdci Density unrelaxed end
           or  %mdci Density orbopt end

                                    ---------------------
                                    Active property flags
                                    ---------------------
   (+) Dipole Moment


------------------------------------------------------------------------------
                       ORCA ELECTRIC PROPERTIES CALCULATION
------------------------------------------------------------------------------

Dipole Moment Calculation                       ... on
Quadrupole Moment Calculation                   ... off
Polarizability Calculation                      ... off
GBWName                                         ... /scratch/dca0099.323469/Energy_S1_def_pyrazine_Nickel.gbw
Electron density                                ... /scratch/dca0099.323469/Energy_S1_def_pyrazine_Nickel.scfp
The origin for moment calculation is the CENTER OF MASS  = (-0.000015, -0.000094  0.000003)

-------------
DIPOLE MOMENT
-------------
                                X             Y             Z
Electronic contribution:      2.32599       0.25285      -9.11321
Nuclear contribution   :      0.00076       0.00434      -0.00007
                        -----------------------------------------
Total Dipole Moment    :      2.32675       0.25719      -9.11327
                        -----------------------------------------
Magnitude (a.u.)       :      9.40912
Magnitude (Debye)      :     23.91609



--------------------
Rotational spectrum 
--------------------
 
Rotational constants in cm-1:     0.002008     0.001057     0.001056 
Rotational constants in MHz :    60.207288    31.684217    31.669831 

 Dipole components along the rotational axes: 
x,y,z [a.u.] :    -9.113063    -0.183794    -2.334503 
x,y,z [Debye]:   -23.163566    -0.467167    -5.933834 

 

Timings for individual modules:

Sum of individual times         ...   283892.067 sec (=4731.534 min)
GTO integral calculation        ...       18.382 sec (=   0.306 min)   0.0 %
SCF iterations                  ...    95671.288 sec (=1594.521 min)  33.7 %
MDCI module                     ...   188202.397 sec (=3136.707 min)  66.3 %
                             ****ORCA TERMINATED NORMALLY****
TOTAL RUN TIME: 3 days 6 hours 51 minutes 39 seconds 255 msec
