
                                 *****************
                                 * O   R   C   A *
                                 *****************

                                            #,                                       
                                            ###                                      
                                            ####                                     
                                            #####                                    
                                            ######                                   
                                           ########,                                 
                                     ,,################,,,,,                         
                               ,,#################################,,                 
                          ,,##########################################,,             
                       ,#########################################, ''#####,          
                    ,#############################################,,   '####,        
                  ,##################################################,,,,####,       
                ,###########''''           ''''###############################       
              ,#####''   ,,,,##########,,,,          '''####'''          '####       
            ,##' ,,,,###########################,,,                        '##       
           ' ,,###''''                  '''############,,,                           
         ,,##''                                '''############,,,,        ,,,,,,###''
      ,#''                                            '''#######################'''  
     '                                                          ''''####''''         
             ,#######,   #######,   ,#######,      ##                                
            ,#'     '#,  ##    ##  ,#'     '#,    #''#        ######   ,####,        
            ##       ##  ##   ,#'  ##            #'  '#       #        #'  '#        
            ##       ##  #######   ##           ,######,      #####,   #    #        
            '#,     ,#'  ##    ##  '#,     ,#' ,#      #,         ##   #,  ,#        
             '#######'   ##     ##  '#######'  #'      '#     #####' # '####'        



                  #######################################################
                  #                        -***-                        #
                  #          Department of theory and spectroscopy      #
                  #    Directorship and core code : Frank Neese         #
                  #        Max Planck Institute fuer Kohlenforschung    #
                  #                Kaiser Wilhelm Platz 1               #
                  #                 D-45470 Muelheim/Ruhr               #
                  #                      Germany                        #
                  #                                                     #
                  #                  All rights reserved                #
                  #                        -***-                        #
                  #######################################################


                         Program Version 5.0.2 -  RELEASE  -


 With contributions from (in alphabetic order):
   Daniel Aravena         : Magnetic Suceptibility
   Michael Atanasov       : Ab Initio Ligand Field Theory (pilot matlab implementation)
   Alexander A. Auer      : GIAO ZORA, VPT2 properties, NMR spectrum
   Ute Becker             : Parallelization
   Giovanni Bistoni       : ED, misc. LED, open-shell LED, HFLD
   Martin Brehm           : Molecular dynamics
   Dmytro Bykov           : SCF Hessian
   Vijay G. Chilkuri      : MRCI spin determinant printing, contributions to CSF-ICE
   Dipayan Datta          : RHF DLPNO-CCSD density
   Achintya Kumar Dutta   : EOM-CC, STEOM-CC
   Dmitry Ganyushin       : Spin-Orbit,Spin-Spin,Magnetic field MRCI
   Miquel Garcia          : C-PCM and meta-GGA Hessian, CC/C-PCM, Gaussian charge scheme
   Yang Guo               : DLPNO-NEVPT2, F12-NEVPT2, CIM, IAO-localization
   Andreas Hansen         : Spin unrestricted coupled pair/coupled cluster methods
   Benjamin Helmich-Paris : MC-RPA, TRAH-SCF, COSX integrals
   Lee Huntington         : MR-EOM, pCC
   Robert Izsak           : Overlap fitted RIJCOSX, COSX-SCS-MP3, EOM
   Marcus Kettner         : VPT2
   Christian Kollmar      : KDIIS, OOCD, Brueckner-CCSD(T), CCSD density, CASPT2, CASPT2-K
   Simone Kossmann        : Meta GGA functionals, TD-DFT gradient, OOMP2, MP2 Hessian
   Martin Krupicka        : Initial AUTO-CI
   Lucas Lang             : DCDCAS
   Marvin Lechner         : AUTO-CI (C++ implementation), FIC-MRCC
   Dagmar Lenk            : GEPOL surface, SMD
   Dimitrios Liakos       : Extrapolation schemes; Compound Job, initial MDCI parallelization
   Dimitrios Manganas     : Further ROCIS development; embedding schemes
   Dimitrios Pantazis     : SARC Basis sets
   Anastasios Papadopoulos: AUTO-CI, single reference methods and gradients
   Taras Petrenko         : DFT Hessian,TD-DFT gradient, ASA, ECA, R-Raman, ABS, FL, XAS/XES, NRVS
   Peter Pinski           : DLPNO-MP2, DLPNO-MP2 Gradient
   Christoph Reimann      : Effective Core Potentials
   Marius Retegan         : Local ZFS, SOC
   Christoph Riplinger    : Optimizer, TS searches, QM/MM, DLPNO-CCSD(T), (RO)-DLPNO pert. Triples
   Tobias Risthaus        : Range-separated hybrids, TD-DFT gradient, RPA, STAB
   Michael Roemelt        : Original ROCIS implementation
   Masaaki Saitow         : Open-shell DLPNO-CCSD energy and density
   Barbara Sandhoefer     : DKH picture change effects
   Avijit Sen             : IP-ROCIS
   Kantharuban Sivalingam : CASSCF convergence, NEVPT2, FIC-MRCI
   Bernardo de Souza      : ESD, SOC TD-DFT
   Georgi Stoychev        : AutoAux, RI-MP2 NMR, DLPNO-MP2 response
   Willem Van den Heuvel  : Paramagnetic NMR
   Boris Wezisla          : Elementary symmetry handling
   Frank Wennmohs         : Technical directorship


 We gratefully acknowledge several colleagues who have allowed us to
 interface, adapt or use parts of their codes:
   Stefan Grimme, W. Hujo, H. Kruse, P. Pracht,  : VdW corrections, initial TS optimization,
                  C. Bannwarth, S. Ehlert          DFT functionals, gCP, sTDA/sTD-DF
   Ed Valeev, F. Pavosevic, A. Kumar             : LibInt (2-el integral package), F12 methods
   Garnet Chan, S. Sharma, J. Yang, R. Olivares  : DMRG
   Ulf Ekstrom                                   : XCFun DFT Library
   Mihaly Kallay                                 : mrcc  (arbitrary order and MRCC methods)
   Jiri Pittner, Ondrej Demel                    : Mk-CCSD
   Frank Weinhold                                : gennbo (NPA and NBO analysis)
   Christopher J. Cramer and Donald G. Truhlar   : smd solvation model
   Lars Goerigk                                  : TD-DFT with DH, B97 family of functionals
   V. Asgeirsson, H. Jonsson                     : NEB implementation
   FAccTs GmbH                                   : IRC, NEB, NEB-TS, DLPNO-Multilevel, CI-OPT
                                                   MM, QMMM, 2- and 3-layer-ONIOM, Crystal-QMMM,
                                                   LR-CPCM, SF, NACMEs, symmetry and pop. for TD-DFT,
                                                   nearIR, NL-DFT gradient (VV10), updates on ESD,
                                                   ML-optimized integration grids
   S Lehtola, MJT Oliveira, MAL Marques          : LibXC Library
   Liviu Ungur et al                             : ANISO software


 Your calculation uses the libint2 library for the computation of 2-el integrals
 For citations please refer to: http://libint.valeyev.net

 Your ORCA version has been built with support for libXC version: 5.1.0
 For citations please refer to: https://tddft.org/programs/libxc/

 This ORCA versions uses:
   CBLAS   interface :  Fast vector & matrix operations
   LAPACKE interface :  Fast linear algebra routines
   SCALAPACK package :  Parallel linear algebra routines
   Shared memory     :  Shared parallel matrices
   BLAS/LAPACK       :  OpenBLAS 0.3.15  USE64BITINT DYNAMIC_ARCH NO_AFFINITY Zen SINGLE_THREADED
        Core in use  :  Zen
   Copyright (c) 2011-2014, The OpenBLAS Project


================================================================================

----- Orbital basis set information -----
Your calculation utilizes the basis: ZORA-def2-TZVP 
   Exponents from def2-TZVP [F. Weigend and R. Ahlrichs, Phys. Chem. Chem. Phys. 7, 3297 (2005)],
   recontracted for ZORA by D. A. Pantazis.

----- AuxJ basis set information -----
Your calculation utilizes the auxiliary basis: def2/J
   F. Weigend, Phys. Chem. Chem. Phys. 8, 1057 (2006).

----- AuxC basis set information -----
Your calculation utilizes the auxiliary basis: def2-TZVP/C
  H-La, Hf-Rn : A. Hellweg, C. Hattig, S. Hofener and W. Klopper, Theor. Chem. Acc. 117, 587 (2007).
        Ce-Lu : J. Chmela and M. E. Harding, Mol. Phys. (2018).

================================================================================
                                        WARNINGS
                       Please study these warnings very carefully!
================================================================================


WARNING: your system is open-shell and RHF/RKS was chosen
  ===> : WILL SWITCH to UHF/UKS

GIAOs and ZORA requested, numerical integration invoked ! 

INFO   : the flag for use of the SHARK integral package has been found!

================================================================================
                                       INPUT FILE
================================================================================
NAME = EPR_DFT_T0_pyrazine_Nickel.inp
|  1> !B3LYP ZORA ZORA-DEF2-TZVP SARC/J DEF2-TZVP/C def2/J RIJCOSX TIGHTSCF CPCM(CH2Cl2) RI-SOMF(1X) UNO 
|  2> %maxcore  25000
|  3> %PAL 
|  4>    NPROCS 9
|  5> END
|  6> 
|  7> # pyrazine_Nickel
|  8> 
|  9> * XYZ 0 3 
| 10>   Ni  0.00001861423108      0.00000489854055      0.00000596173458
| 11>   N   0.00001360609212      0.00001145178440      2.01194315667711
| 12>   N   0.00000350710160      0.00000667320926      4.68392361992765
| 13>   C   -1.14723920842501      0.23554809357182      2.64040931397799
| 14>   C   -4.37989290460869      0.16394471180762     -0.06250919253497
| 15>   C   -3.64063161927445      0.11493795118591      2.21422160046836
| 16>   H   -3.85214450936893      0.03672406161795      3.26813735805289
| 17>   C   -4.67379047216293      0.07942807612413      1.29032405850433
| 18>   C   -1.08267640536932      0.41653940952499      4.03711722346801
| 19>   N   -2.05422220296988      0.26903967269393      0.43966626918348
| 20>   C   -3.60003800600840      2.83783580311291      4.96266043524558
| 21>   N   -2.68728797771597      2.16905851367309      4.26184035359364
| 22>   C   -2.43346476809494      0.66790445451677      6.12140367989761
| 23>   H   -1.94045777210853     -0.19825587214021      6.53898161317895
| 24>   C   -2.33303861414818      0.23497028294327      1.75913256639132
| 25>   C   -3.99232789491057      2.47426925926693      6.24740071367029
| 26>   H   -4.74509751069521      3.05013946494302      6.76869071750713
| 27>   C   -3.04930393137710      0.24551743540251     -0.44393849707822
| 28>   C   -2.11900777523285      1.10104518068643      4.83654110180602
| 29>   C   -3.39533951687613      1.36838457737231      6.83548104266427
| 30>   H   -3.67391202535565      1.05411758127207      7.83297866389603
| 31>   H   -5.69734808329155     -0.01585880869461      1.62780293253888
| 32>   H   -4.03861552901671      3.70387879827756      4.47933093803161
| 33>   H   -5.15774381757431      0.14922685485422     -0.81291961451516
| 34>   H   -2.76997866379592      0.28219474909004     -1.48873319729170
| 35>   C   1.14726203338723     -0.23552868334708      2.64041645356234
| 36>   C   4.37993023694410     -0.16392117885614     -0.06248670900963
| 37>   C   3.64065734332844     -0.11490011436315      2.21423990315112
| 38>   H   3.85216429453484     -0.03667386519537      3.26815546286553
| 39>   C   4.67382050824264     -0.07939096682247      1.29034716195052
| 40>   C   1.08268763090024     -0.41652620624765      4.03712398883946
| 41>   N   2.05425757451579     -0.26902482437649      0.43967801188904
| 42>   C   3.59996672695401     -2.83790141753001      4.96268711080785
| 43>   N   2.68724518829423     -2.16909414971133      4.26185862496026
| 44>   C   2.43345592987881     -0.66793029957337      6.12141848705457
| 45>   H   1.94047272703381      0.19824542475253      6.53899240397685
| 46>   C   2.33306719621964     -0.23494746741577      1.75914585196196
| 47>   C   3.99225916844421     -2.47434574768395      6.24742970754475
| 48>   H   4.74500522693756     -3.05024051427891      6.76872662855233
| 49>   C   3.04934364594519     -0.24550233689618     -0.44392194043574
| 50>   C   2.11899797136518     -1.10105913403149      4.83655219436482
| 51>   C   3.39530242417273     -1.36844086083308      6.83550408362220
| 52>   H   3.67387616800654     -1.05418322196082      7.83300430409818
| 53>   H   5.69737575126183      0.01590665411012      1.62783023104327
| 54>   H   4.03851979367702     -3.70395919732682      4.47936184180719
| 55>   H   5.15778462421217     -0.14920353217517     -0.81289349754883
| 56>   H   2.77002361815983     -0.28218591283383     -1.48871783145697
| 57>   N   0.00002092327941     -0.00000555077012     -2.01193093540721
| 58>   N   0.00001160185106     -0.00001446696802     -4.68390868004843
| 59>   C   0.23561361177657      1.14723200175847     -2.64040668492341
| 60>   C   0.16390772788686      4.37991288487174      0.06249245321099
| 61>   C   0.11491139626056      3.64063508274521     -2.21423233501203
| 62>   H   0.03666503661589      3.85214044176945     -3.26814330179354
| 63>   C   0.07937001220309      4.67379820643365     -1.29034120641724
| 64>   C   0.41666237264894      1.08262322023958     -4.03710998433063
| 65>   N   0.26905555804210      2.05424181942758     -0.43966998860538
| 66>   C   2.83864143597538      3.59929474500702     -4.96276114273144
| 67>   N   2.16962480389695      2.68674946811993     -4.26190391737387
| 68>   C   0.66830593690170      2.43336315791261     -6.12139159456493
| 69>   H   -0.19800939828363      1.94059786775661     -6.53893277291620
| 70>   C   0.23500835187862      2.33304696047235     -1.75914041172241
| 71>   C   2.47512126955254      3.99169702528355     -6.24748023525939
| 72>   H   3.05118955099290      4.74429344666034     -6.76880154485880
| 73>   C   0.24550585875054      3.04932878258223      0.44392884082580
| 74>   C   1.10139725842699      2.11880254752689     -4.83653752729999
| 75>   C   1.36903255861704      3.39503239963902     -6.83550468249910
| 76>   H   1.05480320748756      3.67368956884183     -7.83299047827733
| 77>   H   -0.01595989787399      5.69735006208837     -1.62782553510581
| 78>   H   3.70484187582436      4.03761223279186     -4.47947791412139
| 79>   H   0.14916112909068      5.15776722135528      0.81289873599903
| 80>   H   0.28217409347024      2.77000992336835      1.48872560512671
| 81>   C   -0.23557543523437     -1.14724841554379     -2.64039627575814
| 82>   C   -0.16384226765110     -4.37990144434784      0.06253955656123
| 83>   C   -0.11483607715275     -3.64064819365298     -2.21419275982232
| 84>   H   -0.03657355578841     -3.85216478990842     -3.26809929283859
| 85>   C   -0.07928782331245     -4.67380044359088     -1.29028989597636
| 86>   C   -0.41663622926047     -1.08264785269374     -4.03710007182910
| 87>   N   -0.26901213619106     -2.05423709989579     -0.43964991099539
| 88>   C   -2.83873830267324     -3.59920756261061     -4.96273651171292
| 89>   N   -2.16967782390422     -2.68669061945617     -4.26188463140926
| 90>   C   -0.66833405055175     -2.43340223586423     -6.12136513712781
| 91>   H   0.19800747369694     -1.94068416881831     -6.53890760783639
| 92>   C   -0.23495953707260     -2.33305609073701     -1.75911756392099
| 93>   C   -2.47522862256918     -3.99164493486191     -6.24744785189598
| 94>   H   -3.05133292215328     -4.74421673193860     -6.76876491236240
| 95>   C   -0.24545610134529     -3.04931411914442      0.44396021859104
| 96>   C   -1.10141256328863     -2.11881025462302     -4.83651448397812
| 97>   C   -1.36910517675600     -3.39504410080619     -6.83547162230748
| 98>   H   -1.05488534476628     -3.67372688174734     -7.83295325734389
| 99>   H   0.01606070085619     -5.69735462526426     -1.62776193273277
|100>   H   -3.70496575227522     -4.03747324179260     -4.47945464604298
|101>   H   -0.14908948903223     -5.15774712048403      0.81295472658839
|102>   H   -0.28212754030656     -2.76998384317208      1.48875380965948
|103> *
|104> 
|105> %eprnmr
|106>         gtensor true printlevel 3
|107>         nuclei = all Ni {aiso, adip, aorb, fgrad, rho}
|108> 		DTENSOR SSANDSO
|109>         DSS     UNO
|110>         DSOC    CP
|111> end
|112> 
|113>                          ****END OF INPUT****
================================================================================

                       ****************************
                       * Single Point Calculation *
                       ****************************

---------------------------------
CARTESIAN COORDINATES (ANGSTROEM)
---------------------------------
  Ni     0.000019    0.000005    0.000006
  N      0.000014    0.000011    2.011943
  N      0.000004    0.000007    4.683924
  C     -1.147239    0.235548    2.640409
  C     -4.379893    0.163945   -0.062509
  C     -3.640632    0.114938    2.214222
  H     -3.852145    0.036724    3.268137
  C     -4.673790    0.079428    1.290324
  C     -1.082676    0.416539    4.037117
  N     -2.054222    0.269040    0.439666
  C     -3.600038    2.837836    4.962660
  N     -2.687288    2.169059    4.261840
  C     -2.433465    0.667904    6.121404
  H     -1.940458   -0.198256    6.538982
  C     -2.333039    0.234970    1.759133
  C     -3.992328    2.474269    6.247401
  H     -4.745098    3.050139    6.768691
  C     -3.049304    0.245517   -0.443938
  C     -2.119008    1.101045    4.836541
  C     -3.395340    1.368385    6.835481
  H     -3.673912    1.054118    7.832979
  H     -5.697348   -0.015859    1.627803
  H     -4.038616    3.703879    4.479331
  H     -5.157744    0.149227   -0.812920
  H     -2.769979    0.282195   -1.488733
  C      1.147262   -0.235529    2.640416
  C      4.379930   -0.163921   -0.062487
  C      3.640657   -0.114900    2.214240
  H      3.852164   -0.036674    3.268155
  C      4.673821   -0.079391    1.290347
  C      1.082688   -0.416526    4.037124
  N      2.054258   -0.269025    0.439678
  C      3.599967   -2.837901    4.962687
  N      2.687245   -2.169094    4.261859
  C      2.433456   -0.667930    6.121418
  H      1.940473    0.198245    6.538992
  C      2.333067   -0.234947    1.759146
  C      3.992259   -2.474346    6.247430
  H      4.745005   -3.050241    6.768727
  C      3.049344   -0.245502   -0.443922
  C      2.118998   -1.101059    4.836552
  C      3.395302   -1.368441    6.835504
  H      3.673876   -1.054183    7.833004
  H      5.697376    0.015907    1.627830
  H      4.038520   -3.703959    4.479362
  H      5.157785   -0.149204   -0.812893
  H      2.770024   -0.282186   -1.488718
  N      0.000021   -0.000006   -2.011931
  N      0.000012   -0.000014   -4.683909
  C      0.235614    1.147232   -2.640407
  C      0.163908    4.379913    0.062492
  C      0.114911    3.640635   -2.214232
  H      0.036665    3.852140   -3.268143
  C      0.079370    4.673798   -1.290341
  C      0.416662    1.082623   -4.037110
  N      0.269056    2.054242   -0.439670
  C      2.838641    3.599295   -4.962761
  N      2.169625    2.686749   -4.261904
  C      0.668306    2.433363   -6.121392
  H     -0.198009    1.940598   -6.538933
  C      0.235008    2.333047   -1.759140
  C      2.475121    3.991697   -6.247480
  H      3.051190    4.744293   -6.768802
  C      0.245506    3.049329    0.443929
  C      1.101397    2.118803   -4.836538
  C      1.369033    3.395032   -6.835505
  H      1.054803    3.673690   -7.832990
  H     -0.015960    5.697350   -1.627826
  H      3.704842    4.037612   -4.479478
  H      0.149161    5.157767    0.812899
  H      0.282174    2.770010    1.488726
  C     -0.235575   -1.147248   -2.640396
  C     -0.163842   -4.379901    0.062540
  C     -0.114836   -3.640648   -2.214193
  H     -0.036574   -3.852165   -3.268099
  C     -0.079288   -4.673800   -1.290290
  C     -0.416636   -1.082648   -4.037100
  N     -0.269012   -2.054237   -0.439650
  C     -2.838738   -3.599208   -4.962737
  N     -2.169678   -2.686691   -4.261885
  C     -0.668334   -2.433402   -6.121365
  H      0.198007   -1.940684   -6.538908
  C     -0.234960   -2.333056   -1.759118
  C     -2.475229   -3.991645   -6.247448
  H     -3.051333   -4.744217   -6.768765
  C     -0.245456   -3.049314    0.443960
  C     -1.101413   -2.118810   -4.836514
  C     -1.369105   -3.395044   -6.835472
  H     -1.054885   -3.673727   -7.832953
  H      0.016061   -5.697355   -1.627762
  H     -3.704966   -4.037473   -4.479455
  H     -0.149089   -5.157747    0.812955
  H     -0.282128   -2.769984    1.488754

----------------------------
CARTESIAN COORDINATES (A.U.)
----------------------------
  NO LB      ZA    FRAG     MASS         X           Y           Z
   0 Ni   28.0000    0    58.700    0.000035    0.000009    0.000011
   1 N     7.0000    0    14.007    0.000026    0.000022    3.802022
   2 N     7.0000    0    14.007    0.000007    0.000013    8.851333
   3 C     6.0000    0    12.011   -2.167968    0.445121    4.989650
   4 C     6.0000    0    12.011   -8.276798    0.309811   -0.118125
   5 C     6.0000    0    12.011   -6.879797    0.217201    4.184272
   6 H     1.0000    0     1.008   -7.279498    0.069398    6.175885
   7 C     6.0000    0    12.011   -8.832184    0.150097    2.438359
   8 C     6.0000    0    12.011   -2.045962    0.787145    7.629046
   9 N     7.0000    0    14.007   -3.881917    0.508411    0.830849
  10 C     6.0000    0    12.011   -6.803086    5.362732    9.378069
  11 N     7.0000    0    14.007   -5.078238    4.098927    8.053711
  12 C     6.0000    0    12.011   -4.598582    1.262157   11.567777
  13 H     1.0000    0     1.008   -3.666934   -0.374649   12.356884
  14 C     6.0000    0    12.011   -4.408804    0.444029    3.324279
  15 C     6.0000    0    12.011   -7.544406    4.675691   11.805876
  16 H     1.0000    0     1.008   -8.966935    5.763928   12.790972
  17 C     6.0000    0    12.011   -5.762349    0.463961   -0.838922
  18 C     6.0000    0    12.011   -4.004344    2.080674    9.139738
  19 C     6.0000    0    12.011   -6.416262    2.585872   12.917187
  20 H     1.0000    0     1.008   -6.942688    1.991994   14.802184
  21 H     1.0000    0     1.008  -10.766428   -0.029969    3.076102
  22 H     1.0000    0     1.008   -7.631877    6.999317    8.464709
  23 H     1.0000    0     1.008   -9.746723    0.281998   -1.536195
  24 H     1.0000    0     1.008   -5.234501    0.533271   -2.813298
  25 C     6.0000    0    12.011    2.168011   -0.445085    4.989664
  26 C     6.0000    0    12.011    8.276869   -0.309766   -0.118083
  27 C     6.0000    0    12.011    6.879845   -0.217130    4.184307
  28 H     1.0000    0     1.008    7.279536   -0.069304    6.175919
  29 C     6.0000    0    12.011    8.832241   -0.150027    2.438403
  30 C     6.0000    0    12.011    2.045983   -0.787120    7.629059
  31 N     7.0000    0    14.007    3.881984   -0.508383    0.830871
  32 C     6.0000    0    12.011    6.802951   -5.362856    9.378120
  33 N     7.0000    0    14.007    5.078157   -4.098994    8.053746
  34 C     6.0000    0    12.011    4.598565   -1.262205   11.567804
  35 H     1.0000    0     1.008    3.666962    0.374630   12.356905
  36 C     6.0000    0    12.011    4.408858   -0.443986    3.324304
  37 C     6.0000    0    12.011    7.544276   -4.675836   11.805931
  38 H     1.0000    0     1.008    8.966760   -5.764119   12.791040
  39 C     6.0000    0    12.011    5.762424   -0.463932   -0.838891
  40 C     6.0000    0    12.011    4.004326   -2.080700    9.139759
  41 C     6.0000    0    12.011    6.416192   -2.585978   12.917231
  42 H     1.0000    0     1.008    6.942620   -1.992118   14.802233
  43 H     1.0000    0     1.008   10.766480    0.030059    3.076153
  44 H     1.0000    0     1.008    7.631696   -6.999468    8.464767
  45 H     1.0000    0     1.008    9.746800   -0.281954   -1.536146
  46 H     1.0000    0     1.008    5.234586   -0.533254   -2.813269
  47 N     7.0000    0    14.007    0.000040   -0.000010   -3.801998
  48 N     7.0000    0    14.007    0.000022   -0.000027   -8.851305
  49 C     6.0000    0    12.011    0.445245    2.167954   -4.989646
  50 C     6.0000    0    12.011    0.309741    8.276836    0.118094
  51 C     6.0000    0    12.011    0.217151    6.879803   -4.184293
  52 H     1.0000    0     1.008    0.069287    7.279490   -6.175896
  53 C     6.0000    0    12.011    0.149988    8.832199   -2.438391
  54 C     6.0000    0    12.011    0.787378    2.045861   -7.629032
  55 N     7.0000    0    14.007    0.508441    3.881954   -0.830856
  56 C     6.0000    0    12.011    5.364255    6.801681   -9.378259
  57 N     7.0000    0    14.007    4.099997    5.077221   -8.053831
  58 C     6.0000    0    12.011    1.262915    4.598390  -11.567754
  59 H     1.0000    0     1.008   -0.374184    3.667199  -12.356792
  60 C     6.0000    0    12.011    0.444101    4.408820   -3.324294
  61 C     6.0000    0    12.011    4.677301    7.543214  -11.806027
  62 H     1.0000    0     1.008    5.765913    8.965415  -12.791181
  63 C     6.0000    0    12.011    0.463939    5.762396    0.838904
  64 C     6.0000    0    12.011    2.081339    4.003957   -9.139731
  65 C     6.0000    0    12.011    2.587097    6.415681  -12.917232
  66 H     1.0000    0     1.008    1.993289    6.942267  -14.802207
  67 H     1.0000    0     1.008   -0.030160   10.766431   -3.076144
  68 H     1.0000    0     1.008    7.001137    7.629981   -8.464986
  69 H     1.0000    0     1.008    0.281874    9.746768    1.536156
  70 H     1.0000    0     1.008    0.533232    5.234560    2.813284
  71 C     6.0000    0    12.011   -0.445173   -2.167985   -4.989626
  72 C     6.0000    0    12.011   -0.309617   -8.276814    0.118183
  73 C     6.0000    0    12.011   -0.217009   -6.879828   -4.184218
  74 H     1.0000    0     1.008   -0.069114   -7.279536   -6.175813
  75 C     6.0000    0    12.011   -0.149832   -8.832203   -2.438295
  76 C     6.0000    0    12.011   -0.787328   -2.045908   -7.629014
  77 N     7.0000    0    14.007   -0.508359   -3.881946   -0.830818
  78 C     6.0000    0    12.011   -5.364438   -6.801517   -9.378213
  79 N     7.0000    0    14.007   -4.100097   -5.077109   -8.053795
  80 C     6.0000    0    12.011   -1.262968   -4.598464  -11.567704
  81 H     1.0000    0     1.008    0.374180   -3.667362  -12.356745
  82 C     6.0000    0    12.011   -0.444009   -4.408837   -3.324250
  83 C     6.0000    0    12.011   -4.677504   -7.543116  -11.805965
  84 H     1.0000    0     1.008   -5.766184   -8.965270  -12.791112
  85 C     6.0000    0    12.011   -0.463845   -5.762369    0.838963
  86 C     6.0000    0    12.011   -2.081368   -4.003971   -9.139688
  87 C     6.0000    0    12.011   -2.587234   -6.415704  -12.917169
  88 H     1.0000    0     1.008   -1.993444   -6.942338  -14.802136
  89 H     1.0000    0     1.008    0.030350  -10.766440   -3.076024
  90 H     1.0000    0     1.008   -7.001371   -7.629719   -8.464943
  91 H     1.0000    0     1.008   -0.281738   -9.746730    1.536262
  92 H     1.0000    0     1.008   -0.533144   -5.234511    2.813337

--------------------------------
INTERNAL COORDINATES (ANGSTROEM)
--------------------------------
 Ni     0   0   0     0.000000000000     0.00000000     0.00000000
 N      1   0   0     2.011937194959     0.00000000     0.00000000
 N      2   1   0     2.671980463274   179.99970161     0.00000000
 C      2   1   3     1.329148690296   118.21856651   272.74376160
 C      4   2   1     4.214373668362   110.84345571    10.53700914
 C      5   4   2     2.394245604442    32.18094657   164.93794347
 H      6   5   4     1.077772489574   150.54697541   182.69907466
 C      6   5   4     1.386457656972    30.31911244   181.22458052
 C      3   2   4     1.328176881214    60.85735270   350.55914252
 N      1   2   4     2.117920260705    78.01864268   355.85946419
 C      7   6   5     3.283472725106   115.32015416   253.72139924
 N     11   7   6     1.330986274860    49.62900419   299.20074318
 C     12  11   7     2.403303038653    88.78898908   280.52427698
 H     13  12  11     1.080583610800   147.98060226   180.27611840
 C     10   1   2     1.349033218245   113.59676143   356.75440185
 C     11   7   6     1.391628388524   103.41018192   176.72554248
 H     16  11   7     1.081680108135   120.13241033   230.68480269
 C     10   1   2     1.330976455396   125.80964631   188.12426173
 C     12  11   7     1.339356493980   117.75596521   280.64925085
 C     16  11   7     1.387521000384   118.56918290    50.87456936
 H     20  16  11     1.082297506087   120.75146643   180.01889695
 H      8   6   5     1.081961997548   119.95758510   179.85359619
 H     11   7   6     1.084429857593   114.84894515    43.58560713
 H      5   4   2     1.080918340825   175.92455084   346.00314766
 H     18  10   1     1.082110805806   116.57687068   347.56680982
 C      2   1  10     1.329148898388   118.21855650   175.85908821
 C     26   2   1     4.214375025461   110.84335317    10.53762263
 C     27  26   2     2.394245505899    32.18096372   164.93703758
 H     28  27  26     1.077772027599   150.54696903   182.69916417
 C     28  27  26     1.386457652486    30.31911097   181.22446077
 C      3   2   4     1.328177064389    60.85736062   170.55901726
 N      1   2   4     2.117920255688    78.01864920   175.85940303
 C     29  28  27     3.283582939250   115.31831118   253.71986059
 N     33  29  28     1.330986226524    49.62881790   299.20117936
 C     34  33  29     2.403302888393    88.78899130   280.52569968
 H     35  34  33     1.080583545957   147.98060945   180.27634342
 C     32   1   2     1.349033525306   113.59675002   356.75444660
 C     33  29  28     1.391628407513   103.40929691   176.72517427
 H     38  33  29     1.081680123983   120.13241415   230.68402305
 C     32   1   2     1.330976510957   125.80961625   188.12452093
 C     34  33  29     1.339356708641   117.75597684   280.65084350
 C     38  33  29     1.387520971045   118.56918048    50.87388586
 H     42  38  33     1.082297502627   120.75145248   180.01873056
 H     30  28  27     1.081962011344   119.95758581   179.85354940
 H     33  29  28     1.084429889819   114.85002139    43.58517446
 H     27  26   2     1.080918315694   175.92452762   346.00204844
 H     40  32   1     1.082110815287   116.57686332   347.56660090
 N      1   2   4     2.011936897170   179.99986501   293.11135681
 N     48   1   2     2.671977744672   179.99971385    77.11193721
 C     48   1   2     1.329149985718   118.21855031   156.89149523
 C     50  48   1     4.214383843073   110.84272440   349.45915916
 C     51  50  48     2.394244780832    32.18104029   195.06689626
 H     52  51  50     1.077768683715   150.54671896   177.29917350
 C     52  51  50     1.386457373173    30.31909633   178.77546423
 C     49  48  50     1.328175733610    60.85728990     9.44423512
 N      1   2   4     2.117920004528   101.98145923    85.85953787
 C     53  52  51     3.284316110816   115.30932643   106.29264835
 N     57  53  52     1.330985719947    49.62849838    60.79501957
 C     58  57  53     2.403301351105    88.78903854    79.46228847
 H     59  58  57     1.080583419630   147.98063674   179.72178610
 C     56   1   2     1.349034364426   113.59683315   183.24452345
 C     57  53  52     1.391628401431   103.40130054   183.27793173
 H     62  57  53     1.081680149671   120.13243166   129.32137372
 C     56   1   2     1.330976913379   125.80934196   351.87420739
 C     58  57  53     1.339357151461   117.75611369    79.33601828
 C     62  57  53     1.387520689037   118.56914143   309.13085306
 H     66  62  57     1.082297471049   120.75145120   179.98210292
 H     54  52  51     1.081962044196   119.95759403   180.14654767
 H     57  53  52     1.084429850727   114.85922483   316.41807303
 H     51  50  48     1.080918322636   175.92440365    13.99794288
 H     64  56   1     1.082110836857   116.57684853    12.43414421
 C     48   1   2     1.329150299606   118.21859035   336.89175220
 C     72  48   1     4.214386475586   110.84252613   349.45848463
 C     73  72  48     2.394244560573    32.18106866   195.06822383
 H     74  73  72     1.077767726867   150.54665078   177.29890927
 C     74  73  72     1.386457266462    30.31909407   178.77556312
 C     49  48  50     1.328176132418    60.85731036   189.44430737
 N      1   2   4     2.117919974701   101.98123719   265.85942011
 C     75  74  73     3.284495384549   115.30655480   106.29538454
 N     79  75  74     1.330985519801    49.62841831    60.79424116
 C     80  79  75     2.403301038612    88.78905464    79.45965932
 H     81  80  79     1.080583381825   147.98065554   179.72138332
 C     78   1   2     1.349034653475   113.59684820   183.24447472
 C     79  75  74     1.391628400926   103.39952498   183.27868608
 H     84  79  75     1.081680152026   120.13244015   129.32257582
 C     78   1   2     1.330977093012   125.80923268   351.87378659
 C     80  79  75     1.339357399376   117.75614720    79.33306888
 C     84  79  75     1.387520661880   118.56913177   309.13188276
 H     88  84  79     1.082297467170   120.75144132   179.98238548
 H     76  74  73     1.081962050848   119.95759575   180.14656841
 H     79  75  74     1.084429878636   114.86125002   316.41885399
 H     73  72  48     1.080918344635   175.92436994    13.99880624
 H     86  78   1     1.082110828634   116.57684984    12.43444634

---------------------------
INTERNAL COORDINATES (A.U.)
---------------------------
 Ni     0   0   0     0.000000000000     0.00000000     0.00000000
 N      1   0   0     3.802010297123     0.00000000     0.00000000
 N      2   1   0     5.049311310776   179.99970161     0.00000000
 C      2   1   3     2.511727015919   118.21856651   272.74376160
 C      4   2   1     7.964012059213   110.84345571    10.53700914
 C      5   4   2     4.524468489740    32.18094657   164.93794347
 H      6   5   4     2.036694839969   150.54697541   182.69907466
 C      6   5   4     2.620025267955    30.31911244   181.22458052
 C      3   2   4     2.509890562900    60.85735270   350.55914252
 N      1   2   4     4.002289266215    78.01864268   355.85946419
 C      7   6   5     6.204864218651   115.32015416   253.72139924
 N     11   7   6     2.515199547493    49.62900419   299.20074318
 C     12  11   7     4.541584559875    88.78898908   280.52427698
 H     13  12  11     2.042007089216   147.98060226   180.27611840
 C     10   1   2     2.549303328045   113.59676143   356.75440185
 C     11   7   6     2.629796534500   103.41018192   176.72554248
 H     16  11   7     2.044079168885   120.13241033   230.68480269
 C     10   1   2     2.515180991395   125.80964631   188.12426173
 C     12  11   7     2.531016969312   117.75596521   280.64925085
 C     16  11   7     2.622034695790   118.56918290    50.87456936
 H     20  16  11     2.045245881930   120.75146643   180.01889695
 H      8   6   5     2.044611862676   119.95758510   179.85359619
 H     11   7   6     2.049275442298   114.84894515    43.58560713
 H      5   4   2     2.042639637291   175.92455084   346.00314766
 H     18  10   1     2.044893069531   116.57687068   347.56680982
 C      2   1  10     2.511727409157   118.21855650   175.85908821
 C     26   2   1     7.964014623759   110.84335317    10.53762263
 C     27  26   2     4.524468303522    32.18096372   164.93703758
 H     28  27  26     2.036693966964   150.54696903   182.69916417
 C     28  27  26     2.620025259478    30.31911097   181.22446077
 C      3   2   4     2.509890909052    60.85736062   170.55901726
 N      1   2   4     4.002289256734    78.01864920   175.85940303
 C     29  28  27     6.205072493198   115.31831118   253.71986059
 N     33  29  28     2.515199456151    49.62881790   299.20117936
 C     34  33  29     4.541584275926    88.78899130   280.52569968
 H     35  34  33     2.042006966680   147.98060945   180.27634342
 C     32   1   2     2.549303908306   113.59675002   356.75444660
 C     33  29  28     2.629796570385   103.40929691   176.72517427
 H     38  33  29     2.044079198835   120.13241415   230.68402305
 C     32   1   2     2.515181096390   125.80961625   188.12452093
 C     34  33  29     2.531017374961   117.75597684   280.65084350
 C     38  33  29     2.622034640348   118.56918048    50.87388586
 H     42  38  33     2.045245875392   120.75145248   180.01873056
 H     30  28  27     2.044611888747   119.95758581   179.85354940
 H     33  29  28     2.049275503197   114.85002139    43.58517446
 H     27  26   2     2.042639589800   175.92452762   346.00204844
 H     40  32   1     2.044893087446   116.57686332   347.56660090
 N      1   2   4     3.802009734383   179.99986501   293.11135681
 N     48   1   2     5.049306173363   179.99971385    77.11193721
 C     48   1   2     2.511729463913   118.21855031   156.89149523
 C     50  48   1     7.964031286631   110.84272440   349.45915916
 C     51  50  48     4.524466933342    32.18104029   195.06689626
 H     52  51  50     2.036687647937   150.54671896   177.29917350
 C     52  51  50     2.620024731653    30.31909633   178.77546423
 C     49  48  50     2.509888394243    60.85728990     9.44423512
 N      1   2   4     4.002288782110   101.98145923    85.85953787
 C     53  52  51     6.206457986667   115.30932643   106.29264835
 N     57  53  52     2.515198498860    49.62849838    60.79501957
 C     58  57  53     4.541581370871    88.78903854    79.46228847
 H     59  58  57     2.042006727956   147.98063674   179.72178610
 C     56   1   2     2.549305494013   113.59683315   183.24452345
 C     57  53  52     2.629796558890   103.40130054   183.27793173
 H     62  57  53     2.044079247378   120.13243166   129.32137372
 C     56   1   2     2.515181856859   125.80934196   351.87420739
 C     58  57  53     2.531018211769   117.75611369    79.33601828
 C     62  57  53     2.622034107430   118.56914143   309.13085306
 H     66  62  57     2.045245815718   120.75145120   179.98210292
 H     54  52  51     2.044611950827   119.95759403   180.14654767
 H     57  53  52     2.049275429324   114.85922483   316.41807303
 H     51  50  48     2.042639602919   175.92440365    13.99794288
 H     64  56   1     2.044893128208   116.57684853    12.43414421
 C     48   1   2     2.511730057074   118.21859035   336.89175220
 C     72  48   1     7.964036261359   110.84252613   349.45848463
 C     73  72  48     4.524466517114    32.18106866   195.06822383
 H     74  73  72     2.036685839758   150.54665078   177.29890927
 C     74  73  72     2.620024529998    30.31909407   178.77556312
 C     49  48  50     2.509889147881    60.85731036   189.44430737
 N      1   2   4     4.002288725747   101.98123719   265.85942011
 C     75  74  73     6.206796764925   115.30655480   106.29538454
 N     79  75  74     2.515198120639    49.62841831    60.79424116
 C     80  79  75     4.541580780345    88.78905464    79.45965932
 H     81  80  79     2.042006656516   147.98065554   179.72138332
 C     78   1   2     2.549306040238   113.59684820   183.24447472
 C     79  75  74     2.629796557937   103.39952498   183.27868608
 H     84  79  75     2.044079251828   120.13244015   129.32257582
 C     78   1   2     2.515182196315   125.80923268   351.87378659
 C     80  79  75     2.531018680262   117.75614720    79.33306888
 C     84  79  75     2.622034056109   118.56913177   309.13188276
 H     88  84  79     2.045245808389   120.75144132   179.98238548
 H     76  74  73     2.044611963398   119.95759575   180.14656841
 H     79  75  74     2.049275482063   114.86125002   316.41885399
 H     73  72  48     2.042639644491   175.92436994    13.99880624
 H     86  78   1     2.044893112670   116.57684984    12.43444634

---------------------
BASIS SET INFORMATION
---------------------
There are 4 groups of distinct atoms

 Group   1 Type Ni  : 17s11p7d1f contracted to 10s6p4d1f pattern {8111111111/611111/4111/1}
 Group   2 Type N   : 11s6p2d1f contracted to 6s3p2d1f pattern {611111/411/11/1}
 Group   3 Type C   : 11s6p2d1f contracted to 6s3p2d1f pattern {611111/411/11/1}
 Group   4 Type H   : 5s1p contracted to 3s1p pattern {311/1}

Atom   0Ni   basis set group =>   1
Atom   1N    basis set group =>   2
Atom   2N    basis set group =>   2
Atom   3C    basis set group =>   3
Atom   4C    basis set group =>   3
Atom   5C    basis set group =>   3
Atom   6H    basis set group =>   4
Atom   7C    basis set group =>   3
Atom   8C    basis set group =>   3
Atom   9N    basis set group =>   2
Atom  10C    basis set group =>   3
Atom  11N    basis set group =>   2
Atom  12C    basis set group =>   3
Atom  13H    basis set group =>   4
Atom  14C    basis set group =>   3
Atom  15C    basis set group =>   3
Atom  16H    basis set group =>   4
Atom  17C    basis set group =>   3
Atom  18C    basis set group =>   3
Atom  19C    basis set group =>   3
Atom  20H    basis set group =>   4
Atom  21H    basis set group =>   4
Atom  22H    basis set group =>   4
Atom  23H    basis set group =>   4
Atom  24H    basis set group =>   4
Atom  25C    basis set group =>   3
Atom  26C    basis set group =>   3
Atom  27C    basis set group =>   3
Atom  28H    basis set group =>   4
Atom  29C    basis set group =>   3
Atom  30C    basis set group =>   3
Atom  31N    basis set group =>   2
Atom  32C    basis set group =>   3
Atom  33N    basis set group =>   2
Atom  34C    basis set group =>   3
Atom  35H    basis set group =>   4
Atom  36C    basis set group =>   3
Atom  37C    basis set group =>   3
Atom  38H    basis set group =>   4
Atom  39C    basis set group =>   3
Atom  40C    basis set group =>   3
Atom  41C    basis set group =>   3
Atom  42H    basis set group =>   4
Atom  43H    basis set group =>   4
Atom  44H    basis set group =>   4
Atom  45H    basis set group =>   4
Atom  46H    basis set group =>   4
Atom  47N    basis set group =>   2
Atom  48N    basis set group =>   2
Atom  49C    basis set group =>   3
Atom  50C    basis set group =>   3
Atom  51C    basis set group =>   3
Atom  52H    basis set group =>   4
Atom  53C    basis set group =>   3
Atom  54C    basis set group =>   3
Atom  55N    basis set group =>   2
Atom  56C    basis set group =>   3
Atom  57N    basis set group =>   2
Atom  58C    basis set group =>   3
Atom  59H    basis set group =>   4
Atom  60C    basis set group =>   3
Atom  61C    basis set group =>   3
Atom  62H    basis set group =>   4
Atom  63C    basis set group =>   3
Atom  64C    basis set group =>   3
Atom  65C    basis set group =>   3
Atom  66H    basis set group =>   4
Atom  67H    basis set group =>   4
Atom  68H    basis set group =>   4
Atom  69H    basis set group =>   4
Atom  70H    basis set group =>   4
Atom  71C    basis set group =>   3
Atom  72C    basis set group =>   3
Atom  73C    basis set group =>   3
Atom  74H    basis set group =>   4
Atom  75C    basis set group =>   3
Atom  76C    basis set group =>   3
Atom  77N    basis set group =>   2
Atom  78C    basis set group =>   3
Atom  79N    basis set group =>   2
Atom  80C    basis set group =>   3
Atom  81H    basis set group =>   4
Atom  82C    basis set group =>   3
Atom  83C    basis set group =>   3
Atom  84H    basis set group =>   4
Atom  85C    basis set group =>   3
Atom  86C    basis set group =>   3
Atom  87C    basis set group =>   3
Atom  88H    basis set group =>   4
Atom  89H    basis set group =>   4
Atom  90H    basis set group =>   4
Atom  91H    basis set group =>   4
Atom  92H    basis set group =>   4
---------------------------------
AUXILIARY/J BASIS SET INFORMATION
---------------------------------
There are 4 groups of distinct atoms

 Group   1 Type Ni  : 19s5p5d3f3g contracted to 8s5p5d2f3g pattern {121111111/11111/11111/21/111}
 Group   2 Type N   : 12s5p4d2f1g contracted to 6s4p3d1f1g pattern {711111/2111/211/2/1}
 Group   3 Type C   : 12s5p4d2f1g contracted to 6s4p3d1f1g pattern {711111/2111/211/2/1}
 Group   4 Type H   : 5s2p1d contracted to 3s1p1d pattern {311/2/1}

Atom   0Ni   basis set group =>   1
Atom   1N    basis set group =>   2
Atom   2N    basis set group =>   2
Atom   3C    basis set group =>   3
Atom   4C    basis set group =>   3
Atom   5C    basis set group =>   3
Atom   6H    basis set group =>   4
Atom   7C    basis set group =>   3
Atom   8C    basis set group =>   3
Atom   9N    basis set group =>   2
Atom  10C    basis set group =>   3
Atom  11N    basis set group =>   2
Atom  12C    basis set group =>   3
Atom  13H    basis set group =>   4
Atom  14C    basis set group =>   3
Atom  15C    basis set group =>   3
Atom  16H    basis set group =>   4
Atom  17C    basis set group =>   3
Atom  18C    basis set group =>   3
Atom  19C    basis set group =>   3
Atom  20H    basis set group =>   4
Atom  21H    basis set group =>   4
Atom  22H    basis set group =>   4
Atom  23H    basis set group =>   4
Atom  24H    basis set group =>   4
Atom  25C    basis set group =>   3
Atom  26C    basis set group =>   3
Atom  27C    basis set group =>   3
Atom  28H    basis set group =>   4
Atom  29C    basis set group =>   3
Atom  30C    basis set group =>   3
Atom  31N    basis set group =>   2
Atom  32C    basis set group =>   3
Atom  33N    basis set group =>   2
Atom  34C    basis set group =>   3
Atom  35H    basis set group =>   4
Atom  36C    basis set group =>   3
Atom  37C    basis set group =>   3
Atom  38H    basis set group =>   4
Atom  39C    basis set group =>   3
Atom  40C    basis set group =>   3
Atom  41C    basis set group =>   3
Atom  42H    basis set group =>   4
Atom  43H    basis set group =>   4
Atom  44H    basis set group =>   4
Atom  45H    basis set group =>   4
Atom  46H    basis set group =>   4
Atom  47N    basis set group =>   2
Atom  48N    basis set group =>   2
Atom  49C    basis set group =>   3
Atom  50C    basis set group =>   3
Atom  51C    basis set group =>   3
Atom  52H    basis set group =>   4
Atom  53C    basis set group =>   3
Atom  54C    basis set group =>   3
Atom  55N    basis set group =>   2
Atom  56C    basis set group =>   3
Atom  57N    basis set group =>   2
Atom  58C    basis set group =>   3
Atom  59H    basis set group =>   4
Atom  60C    basis set group =>   3
Atom  61C    basis set group =>   3
Atom  62H    basis set group =>   4
Atom  63C    basis set group =>   3
Atom  64C    basis set group =>   3
Atom  65C    basis set group =>   3
Atom  66H    basis set group =>   4
Atom  67H    basis set group =>   4
Atom  68H    basis set group =>   4
Atom  69H    basis set group =>   4
Atom  70H    basis set group =>   4
Atom  71C    basis set group =>   3
Atom  72C    basis set group =>   3
Atom  73C    basis set group =>   3
Atom  74H    basis set group =>   4
Atom  75C    basis set group =>   3
Atom  76C    basis set group =>   3
Atom  77N    basis set group =>   2
Atom  78C    basis set group =>   3
Atom  79N    basis set group =>   2
Atom  80C    basis set group =>   3
Atom  81H    basis set group =>   4
Atom  82C    basis set group =>   3
Atom  83C    basis set group =>   3
Atom  84H    basis set group =>   4
Atom  85C    basis set group =>   3
Atom  86C    basis set group =>   3
Atom  87C    basis set group =>   3
Atom  88H    basis set group =>   4
Atom  89H    basis set group =>   4
Atom  90H    basis set group =>   4
Atom  91H    basis set group =>   4
Atom  92H    basis set group =>   4
---------------------------------
AUXILIARY/C BASIS SET INFORMATION
---------------------------------
There are 4 groups of distinct atoms

 Group   1 Type Ni  : 11s9p8d6f5g2h contracted to 9s8p8d6f5g2h pattern {311111111/21111111/11111111/111111/11111/11}
 Group   2 Type N   : 8s6p5d3f1g contracted to 8s6p4d3f1g pattern {11111111/111111/2111/111/1}
 Group   3 Type C   : 8s6p5d3f1g contracted to 8s6p4d3f1g pattern {11111111/111111/2111/111/1}
 Group   4 Type H   : 4s3p2d contracted to 4s2p1d pattern {1111/21/2}

Atom   0Ni   basis set group =>   1
Atom   1N    basis set group =>   2
Atom   2N    basis set group =>   2
Atom   3C    basis set group =>   3
Atom   4C    basis set group =>   3
Atom   5C    basis set group =>   3
Atom   6H    basis set group =>   4
Atom   7C    basis set group =>   3
Atom   8C    basis set group =>   3
Atom   9N    basis set group =>   2
Atom  10C    basis set group =>   3
Atom  11N    basis set group =>   2
Atom  12C    basis set group =>   3
Atom  13H    basis set group =>   4
Atom  14C    basis set group =>   3
Atom  15C    basis set group =>   3
Atom  16H    basis set group =>   4
Atom  17C    basis set group =>   3
Atom  18C    basis set group =>   3
Atom  19C    basis set group =>   3
Atom  20H    basis set group =>   4
Atom  21H    basis set group =>   4
Atom  22H    basis set group =>   4
Atom  23H    basis set group =>   4
Atom  24H    basis set group =>   4
Atom  25C    basis set group =>   3
Atom  26C    basis set group =>   3
Atom  27C    basis set group =>   3
Atom  28H    basis set group =>   4
Atom  29C    basis set group =>   3
Atom  30C    basis set group =>   3
Atom  31N    basis set group =>   2
Atom  32C    basis set group =>   3
Atom  33N    basis set group =>   2
Atom  34C    basis set group =>   3
Atom  35H    basis set group =>   4
Atom  36C    basis set group =>   3
Atom  37C    basis set group =>   3
Atom  38H    basis set group =>   4
Atom  39C    basis set group =>   3
Atom  40C    basis set group =>   3
Atom  41C    basis set group =>   3
Atom  42H    basis set group =>   4
Atom  43H    basis set group =>   4
Atom  44H    basis set group =>   4
Atom  45H    basis set group =>   4
Atom  46H    basis set group =>   4
Atom  47N    basis set group =>   2
Atom  48N    basis set group =>   2
Atom  49C    basis set group =>   3
Atom  50C    basis set group =>   3
Atom  51C    basis set group =>   3
Atom  52H    basis set group =>   4
Atom  53C    basis set group =>   3
Atom  54C    basis set group =>   3
Atom  55N    basis set group =>   2
Atom  56C    basis set group =>   3
Atom  57N    basis set group =>   2
Atom  58C    basis set group =>   3
Atom  59H    basis set group =>   4
Atom  60C    basis set group =>   3
Atom  61C    basis set group =>   3
Atom  62H    basis set group =>   4
Atom  63C    basis set group =>   3
Atom  64C    basis set group =>   3
Atom  65C    basis set group =>   3
Atom  66H    basis set group =>   4
Atom  67H    basis set group =>   4
Atom  68H    basis set group =>   4
Atom  69H    basis set group =>   4
Atom  70H    basis set group =>   4
Atom  71C    basis set group =>   3
Atom  72C    basis set group =>   3
Atom  73C    basis set group =>   3
Atom  74H    basis set group =>   4
Atom  75C    basis set group =>   3
Atom  76C    basis set group =>   3
Atom  77N    basis set group =>   2
Atom  78C    basis set group =>   3
Atom  79N    basis set group =>   2
Atom  80C    basis set group =>   3
Atom  81H    basis set group =>   4
Atom  82C    basis set group =>   3
Atom  83C    basis set group =>   3
Atom  84H    basis set group =>   4
Atom  85C    basis set group =>   3
Atom  86C    basis set group =>   3
Atom  87C    basis set group =>   3
Atom  88H    basis set group =>   4
Atom  89H    basis set group =>   4
Atom  90H    basis set group =>   4
Atom  91H    basis set group =>   4
Atom  92H    basis set group =>   4
[1656170703.893620] [c302-011:280657:0]        rc_iface.c:506  UCX  WARN  using maximal value for RETRY_COUNT (7) instead of 40
[1656170703.893440] [c302-011:280650:0]        rc_iface.c:506  UCX  WARN  using maximal value for RETRY_COUNT (7) instead of 40
[1656170703.893449] [c302-011:280651:0]        rc_iface.c:506  UCX  WARN  using maximal value for RETRY_COUNT (7) instead of 40
[1656170703.893460] [c302-011:280655:0]        rc_iface.c:506  UCX  WARN  using maximal value for RETRY_COUNT (7) instead of 40
[1656170703.893467] [c302-011:280656:0]        rc_iface.c:506  UCX  WARN  using maximal value for RETRY_COUNT (7) instead of 40
[1656170703.894042] [c302-011:280654:0]        rc_iface.c:506  UCX  WARN  using maximal value for RETRY_COUNT (7) instead of 40
[1656170703.894127] [c302-011:280653:0]        rc_iface.c:506  UCX  WARN  using maximal value for RETRY_COUNT (7) instead of 40
[1656170703.894242] [c302-011:280658:0]        rc_iface.c:506  UCX  WARN  using maximal value for RETRY_COUNT (7) instead of 40
[1656170703.894241] [c302-011:280652:0]        rc_iface.c:506  UCX  WARN  using maximal value for RETRY_COUNT (7) instead of 40
[1656170703.897629] [c302-011:280655:0]        rc_iface.c:506  UCX  WARN  using maximal value for RETRY_COUNT (7) instead of 40
[1656170703.898066] [c302-011:280650:0]        rc_iface.c:506  UCX  WARN  using maximal value for RETRY_COUNT (7) instead of 40
[1656170703.898149] [c302-011:280656:0]        rc_iface.c:506  UCX  WARN  using maximal value for RETRY_COUNT (7) instead of 40
[1656170703.898263] [c302-011:280651:0]        rc_iface.c:506  UCX  WARN  using maximal value for RETRY_COUNT (7) instead of 40
[1656170703.898494] [c302-011:280654:0]        rc_iface.c:506  UCX  WARN  using maximal value for RETRY_COUNT (7) instead of 40
[1656170703.898486] [c302-011:280657:0]        rc_iface.c:506  UCX  WARN  using maximal value for RETRY_COUNT (7) instead of 40
[1656170703.898600] [c302-011:280653:0]        rc_iface.c:506  UCX  WARN  using maximal value for RETRY_COUNT (7) instead of 40
[1656170703.898651] [c302-011:280658:0]        rc_iface.c:506  UCX  WARN  using maximal value for RETRY_COUNT (7) instead of 40
[1656170703.898908] [c302-011:280652:0]        rc_iface.c:506  UCX  WARN  using maximal value for RETRY_COUNT (7) instead of 40


           ************************************************************
           *        Program running with 9 parallel MPI-processes     *
           *              working on a common directory               *
           ************************************************************
------------------------------------------------------------------------------
                           ORCA GTO INTEGRAL CALCULATION
                           -- RI-GTO INTEGRALS CHOSEN --
------------------------------------------------------------------------------
------------------------------------------------------------------------------
                   ___                                                        
                  /   \      - P O W E R E D   B Y -                         
                 /     \                                                     
                 |  |  |   _    _      __       _____    __    __             
                 |  |  |  | |  | |    /  \     |  _  \  |  |  /  |          
                  \  \/   | |  | |   /    \    | | | |  |  | /  /          
                 / \  \   | |__| |  /  /\  \   | |_| |  |  |/  /          
                |  |  |   |  __  | /  /__\  \  |    /   |      \           
                |  |  |   | |  | | |   __   |  |    \   |  |\   \          
                \     /   | |  | | |  |  |  |  | |\  \  |  | \   \       
                 \___/    |_|  |_| |__|  |__|  |_| \__\ |__|  \__/        
                                                                              
                      - O R C A' S   B I G   F R I E N D -                    
                                      &                                       
                       - I N T E G R A L  F E E D E R -                       
                                                                              
 v1 FN, 2020, v2 2021                                                         
------------------------------------------------------------------------------


Reading SHARK input file EPR_DFT_T0_pyrazine_Nickel.SHARKINP.tmp ... ok
----------------------
SHARK INTEGRAL PACKAGE
----------------------

Number of atoms                             ...     93
Number of basis functions                   ...   2167
Number of shells                            ...    869
Maximum angular momentum                    ...      3
Integral batch strategy                     ... SHARK/LIBINT Hybrid
RI-J (if used) integral strategy            ... SPLIT-RIJ (Revised 2003 algorithm where possible)
Printlevel                                  ...      1
Contraction scheme used                     ... SEGMENTED contraction
Coulomb Range Separation                    ... NOT USED
Exchange Range Separation                   ... NOT USED
Finite Nucleus Model                        ... NOT USED
Auxiliary Coulomb fitting basis             ... AVAILABLE
   # of basis functions in Aux-J            ...   3381
   # of shells in Aux-J                     ...   1083
   Maximum angular momentum in Aux-J        ...      4
Auxiliary J/K fitting basis                 ... NOT available
Auxiliary Correlation fitting basis         ... AVAILABLE
   # of basis functions in Aux-C            ...   5222
   # of shells in Aux-C                     ...   1582
   Maximum angular momentum in Aux-C        ...      5
Auxiliary 'external' fitting basis          ... NOT available
Integral threshold                          ...     2.500000e-11
Primitive cut-off                           ...     2.500000e-12
Primitive pair pre-selection threshold      ...     2.500000e-12

Calculating pre-screening integrals         ... done (  0.2 sec) Dimension = 869
Organizing shell pair data                  ... done (  1.0 sec)
Shell pair information
Total number of shell pairs                 ...    378015
Shell pairs after pre-screening             ...    171116
Total number of primitive shell pairs       ...   1021711
Primitive shell pairs kept                  ...    293132
          la=0 lb=0:  44207 shell pairs
          la=1 lb=0:  50974 shell pairs
          la=1 lb=1:  14314 shell pairs
          la=2 lb=0:  24004 shell pairs
          la=2 lb=1:  14246 shell pairs
          la=2 lb=2:   3415 shell pairs
          la=3 lb=0:  10188 shell pairs
          la=3 lb=1:   6342 shell pairs
          la=3 lb=2:   2836 shell pairs
          la=3 lb=3:    590 shell pairs

Calculating one electron integrals          ... done (  0.4 sec)
Calculating RI/J V-Matrix + Cholesky decomp.... done (  1.2 sec)
Calculating RI/C V-Matrix + Cholesky decomp.... done (  1.4 sec)
Calculating Nuclear repulsion               ... done (  0.0 sec) ENN=   9637.675338899788 Eh

SHARK setup successfully completed in   7.7 seconds

Maximum memory used throughout the entire GTOINT-calculation: 294.8 MB
[1656170714.652221] [c302-011:280806:0]        rc_iface.c:506  UCX  WARN  using maximal value for RETRY_COUNT (7) instead of 40
[1656170714.652487] [c302-011:280809:0]        rc_iface.c:506  UCX  WARN  using maximal value for RETRY_COUNT (7) instead of 40
[1656170714.653253] [c302-011:280807:0]        rc_iface.c:506  UCX  WARN  using maximal value for RETRY_COUNT (7) instead of 40
[1656170714.654151] [c302-011:280812:0]        rc_iface.c:506  UCX  WARN  using maximal value for RETRY_COUNT (7) instead of 40
[1656170714.654334] [c302-011:280805:0]        rc_iface.c:506  UCX  WARN  using maximal value for RETRY_COUNT (7) instead of 40
[1656170714.655902] [c302-011:280810:0]        rc_iface.c:506  UCX  WARN  using maximal value for RETRY_COUNT (7) instead of 40
[1656170714.656028] [c302-011:280804:0]        rc_iface.c:506  UCX  WARN  using maximal value for RETRY_COUNT (7) instead of 40
[1656170714.656711] [c302-011:280806:0]        rc_iface.c:506  UCX  WARN  using maximal value for RETRY_COUNT (7) instead of 40
[1656170714.657160] [c302-011:280807:0]        rc_iface.c:506  UCX  WARN  using maximal value for RETRY_COUNT (7) instead of 40
[1656170714.657352] [c302-011:280809:0]        rc_iface.c:506  UCX  WARN  using maximal value for RETRY_COUNT (7) instead of 40
[1656170714.658081] [c302-011:280805:0]        rc_iface.c:506  UCX  WARN  using maximal value for RETRY_COUNT (7) instead of 40
[1656170714.658689] [c302-011:280812:0]        rc_iface.c:506  UCX  WARN  using maximal value for RETRY_COUNT (7) instead of 40
[1656170714.659786] [c302-011:280810:0]        rc_iface.c:506  UCX  WARN  using maximal value for RETRY_COUNT (7) instead of 40
[1656170714.660219] [c302-011:280804:0]        rc_iface.c:506  UCX  WARN  using maximal value for RETRY_COUNT (7) instead of 40
[1656170714.660990] [c302-011:280808:0]        rc_iface.c:506  UCX  WARN  using maximal value for RETRY_COUNT (7) instead of 40
[1656170714.661868] [c302-011:280811:0]        rc_iface.c:506  UCX  WARN  using maximal value for RETRY_COUNT (7) instead of 40
[1656170714.664050] [c302-011:280808:0]        rc_iface.c:506  UCX  WARN  using maximal value for RETRY_COUNT (7) instead of 40
[1656170714.665042] [c302-011:280811:0]        rc_iface.c:506  UCX  WARN  using maximal value for RETRY_COUNT (7) instead of 40


           ************************************************************
           *        Program running with 9 parallel MPI-processes     *
           *              working on a common directory               *
           ************************************************************
------------------------------------------------------------------------------
                          ORCA RELATIVISTIC HAMILTONIAN
------------------------------------------------------------------------------

Relativistic Method            ... ZORA(MP)
Treatment of potential         ... Van Wuellen
Nucleus model                  ... Point Nucleus
Speed of light used            ... 137.03598950000000


            *************************************************
            *         ZERO ORDER REGULAR APPROXIMATION      *
            *                     ZORA(MP)                  *
            *            Programmed by FN according to      *
            *                   C. van Wuellen              *
            *       J. Chem. Phys. (1998) vol 109, 392-399  *
            *************************************************

Terms included in model potential: +V(e,N)+V(C)+V(Xa)+V(VWN-V)
Basis function cutoff value   ... 1.000000e-11
Loading the fitted atomic densities (ZORA)   ... done
Calculating the cutoffs                      ... done
Number of fit functions                      ... 847
Setting up the integration grid ... done

Maximum memory used throughout the entire REL-calculation: 131.2 MB
[1656170740.487416] [c302-011:280862:0]        rc_iface.c:506  UCX  WARN  using maximal value for RETRY_COUNT (7) instead of 40
[1656170740.487493] [c302-011:280866:0]        rc_iface.c:506  UCX  WARN  using maximal value for RETRY_COUNT (7) instead of 40
[1656170740.487695] [c302-011:280869:0]        rc_iface.c:506  UCX  WARN  using maximal value for RETRY_COUNT (7) instead of 40
[1656170740.490355] [c302-011:280862:0]        rc_iface.c:506  UCX  WARN  using maximal value for RETRY_COUNT (7) instead of 40
[1656170740.490362] [c302-011:280863:0]        rc_iface.c:506  UCX  WARN  using maximal value for RETRY_COUNT (7) instead of 40
[1656170740.490482] [c302-011:280866:0]        rc_iface.c:506  UCX  WARN  using maximal value for RETRY_COUNT (7) instead of 40
[1656170740.490486] [c302-011:280870:0]        rc_iface.c:506  UCX  WARN  using maximal value for RETRY_COUNT (7) instead of 40
[1656170740.490703] [c302-011:280869:0]        rc_iface.c:506  UCX  WARN  using maximal value for RETRY_COUNT (7) instead of 40
[1656170740.493147] [c302-011:280863:0]        rc_iface.c:506  UCX  WARN  using maximal value for RETRY_COUNT (7) instead of 40
[1656170740.493738] [c302-011:280870:0]        rc_iface.c:506  UCX  WARN  using maximal value for RETRY_COUNT (7) instead of 40
[1656170740.496126] [c302-011:280868:0]        rc_iface.c:506  UCX  WARN  using maximal value for RETRY_COUNT (7) instead of 40
[1656170740.496447] [c302-011:280865:0]        rc_iface.c:506  UCX  WARN  using maximal value for RETRY_COUNT (7) instead of 40
[1656170740.497685] [c302-011:280864:0]        rc_iface.c:506  UCX  WARN  using maximal value for RETRY_COUNT (7) instead of 40
[1656170740.498093] [c302-011:280867:0]        rc_iface.c:506  UCX  WARN  using maximal value for RETRY_COUNT (7) instead of 40
[1656170740.499834] [c302-011:280865:0]        rc_iface.c:506  UCX  WARN  using maximal value for RETRY_COUNT (7) instead of 40
[1656170740.499993] [c302-011:280868:0]        rc_iface.c:506  UCX  WARN  using maximal value for RETRY_COUNT (7) instead of 40
[1656170740.501138] [c302-011:280864:0]        rc_iface.c:506  UCX  WARN  using maximal value for RETRY_COUNT (7) instead of 40
[1656170740.501509] [c302-011:280867:0]        rc_iface.c:506  UCX  WARN  using maximal value for RETRY_COUNT (7) instead of 40


           ************************************************************
           *        Program running with 9 parallel MPI-processes     *
           *              working on a common directory               *
           ************************************************************
-------------------------------------------------------------------------------
                                 ORCA SCF
-------------------------------------------------------------------------------

------------
SCF SETTINGS
------------
Hamiltonian:
 Density Functional     Method          .... DFT(GTOs)
 Exchange Functional    Exchange        .... B88
   X-Alpha parameter    XAlpha          ....  0.666667
   Becke's b parameter  XBeta           ....  0.004200
 Correlation Functional Correlation     .... LYP
 LDA part of GGA corr.  LDAOpt          .... VWN-5
 Gradients option       PostSCFGGA      .... off
 Hybrid DFT is turned on
   Fraction HF Exchange ScalHFX         ....  0.200000
   Scaling of DF-GGA-X  ScalDFX         ....  0.720000
   Scaling of DF-GGA-C  ScalDFC         ....  0.810000
   Scaling of DF-LDA-C  ScalLDAC        ....  1.000000
   Perturbative correction              ....  0.000000
   Density functional embedding theory  .... OFF
   NL short-range parameter             ....  4.800000
 RI-approximation to the Coulomb term is turned on
   Number of AuxJ basis functions       .... 3381
   RIJ-COSX (HFX calculated with COS-X)).... on

Relativistic Settings:
 Scalar relativistic method             .... ZORA
 Speed of light used       Velit        ....       137.035989
Orbital energies will be scaled


General Settings:
 Integral files         IntName         .... EPR_DFT_T0_pyrazine_Nickel
 Hartree-Fock type      HFTyp           .... UHF
 Total Charge           Charge          ....    0
 Multiplicity           Mult            ....    3
 Number of Electrons    NEL             ....  432
 Basis Dimension        Dim             .... 2167
 Nuclear Repulsion      ENuc            ....   9637.6753388998 Eh

Convergence Acceleration:
 DIIS                   CNVDIIS         .... on
   Start iteration      DIISMaxIt       ....    12
   Startup error        DIISStart       ....  0.200000
   # of expansion vecs  DIISMaxEq       ....     5
   Bias factor          DIISBfac        ....   1.050
   Max. coefficient     DIISMaxC        ....  10.000
 Trust-Rad. Augm. Hess. CNVTRAH         .... auto
   Auto Start mean grad. ratio tolernc. ....  1.125000
   Auto Start start iteration           ....    20
   Auto Start num. interpolation iter.  ....    10
   Max. Number of Micro iterations      ....    16
   Max. Number of Macro iterations      .... Maxiter - #DIIS iter
   Number of Davidson start vectors     ....     2
   Converg. threshold I  (grad. norm)   ....   1.000e-05
   Converg. threshold II (energy diff.) ....   1.000e-08
   Grad. Scal. Fac. for Micro threshold ....   0.100
   Minimum threshold for Micro iter.    ....   0.010
   NR start threshold (gradient norm)   ....   0.001
   Initial trust radius                 ....   0.400
   Minimum AH scaling param. (alpha)    ....   1.000
   Maximum AH scaling param. (alpha)    .... 1000.000
   Orbital update algorithm             .... Taylor
   White noise on init. David. guess    .... on
   Maximum white noise                  ....   0.010
   Quad. conv. algorithm                .... NR
 SOSCF                  CNVSOSCF        .... off
 Level Shifting         CNVShift        .... on
   Level shift para.    LevelShift      ....    0.2500
   Turn off err/grad.   ShiftErr        ....    0.0010
 Zerner damping         CNVZerner       .... off
 Static damping         CNVDamp         .... on
   Fraction old density DampFac         ....    0.7000
   Max. Damping (<1)    DampMax         ....    0.9800
   Min. Damping (>=0)   DampMin         ....    0.0000
   Turn off err/grad.   DampErr         ....    0.1000
 Fernandez-Rico         CNVRico         .... off

SCF Procedure:
 Maximum # iterations   MaxIter         ....   125
 SCF integral mode      SCFMode         .... Direct
   Integral package                     .... SHARK and LIBINT hybrid scheme
 Reset frequency        DirectResetFreq ....    20
 Integral Threshold     Thresh          ....  2.500e-11 Eh
 Primitive CutOff       TCut            ....  2.500e-12 Eh

Convergence Tolerance:
 Convergence Check Mode ConvCheckMode   .... Total+1el-Energy
 Convergence forced     ConvForced      .... 0
 Energy Change          TolE            ....  1.000e-08 Eh
 1-El. energy change                    ....  1.000e-05 Eh
 DIIS Error             TolErr          ....  5.000e-07


Diagonalization of the overlap matrix:
Smallest eigenvalue                        ... 9.826e-06
Time for diagonalization                   ...    0.767 sec
Threshold for overlap eigenvalues          ... 1.000e-08
Number of eigenvalues below threshold      ... 0
Time for construction of square roots      ...    0.712 sec
Total time needed                          ...    1.490 sec

Time for model grid setup =    1.595 sec

------------------------------
INITIAL GUESS: MODEL POTENTIAL
------------------------------
Loading ZORA relativistic densities                ... done
Calculating cut-offs                               ... done
Initializing the effective Hamiltonian             ... done
Setting up the integral package (SHARK)            ... done
Starting the Coulomb interaction                   ... done (   3.8 sec)
Reading the grid                                   ... done
Mapping shells                                     ... done
Starting the XC term evaluation                    ... done (   1.0 sec)
  promolecular density results
     # of electrons  =    432.011812906
     EX              =   -398.687966299
     EC              =    -15.219843769
     EX+EC           =   -413.907810067
Transforming the Hamiltonian                       ... done (   0.3 sec)
Diagonalizing the Hamiltonian                      ... done (   0.8 sec)
Back transforming the eigenvectors                 ... done (   0.1 sec)
Now organizing SCF variables                       ... done
                      ------------------
                      INITIAL GUESS DONE (   7.8 sec)
                      ------------------
-------------------
DFT GRID GENERATION
-------------------

General Integration Accuracy     IntAcc      ... 4.388
Radial Grid Type                 RadialGrid  ... OptM3 with GC (2021)
Angular Grid (max. ang.)         AngularGrid ... 4 (Lebedev-302)
Angular grid pruning method      GridPruning ... 4 (adaptive)
Weight generation scheme         WeightScheme... Becke
Basis function cutoff            BFCut       ... 1.0000e-11
Integration weight cutoff        WCut        ... 1.0000e-14
Angular grids for H and He will be reduced by one unit
Partially contracted basis set               ... off
Rotationally invariant grid construction     ... off

Total number of grid points                  ...   467434
Total number of batches                      ...     7349
Average number of points per batch           ...       63
Average number of grid points per atom       ...     5026
Time for grid setup =    4.805 sec

--------------------
COSX GRID GENERATION
--------------------

GRIDX 1
-------
General Integration Accuracy     IntAcc      ... 3.816
Radial Grid Type                 RadialGrid  ... OptM3 with GC (2021)
Angular Grid (max. ang.)         AngularGrid ... 1 (Lebedev-50)
Angular grid pruning method      GridPruning ... 4 (adaptive)
Weight generation scheme         WeightScheme... Becke
Basis function cutoff            BFCut       ... 1.0000e-11
Integration weight cutoff        WCut        ... 1.0000e-14
Angular grids for H and He will be reduced by one unit
Partially contracted basis set               ... on
Rotationally invariant grid construction     ... off

Total number of grid points                  ...    58862
Total number of batches                      ...      960
Average number of points per batch           ...       61
Average number of grid points per atom       ...      633
UseSFitting                                  ... on

GRIDX 2
-------
General Integration Accuracy     IntAcc      ... 4.020
Radial Grid Type                 RadialGrid  ... OptM3 with GC (2021)
Angular Grid (max. ang.)         AngularGrid ... 2 (Lebedev-110)
Angular grid pruning method      GridPruning ... 4 (adaptive)
Weight generation scheme         WeightScheme... Becke
Basis function cutoff            BFCut       ... 1.0000e-11
Integration weight cutoff        WCut        ... 1.0000e-14
Angular grids for H and He will be reduced by one unit
Partially contracted basis set               ... on
Rotationally invariant grid construction     ... off

Total number of grid points                  ...   128216
Total number of batches                      ...     2047
Average number of points per batch           ...       62
Average number of grid points per atom       ...     1379
UseSFitting                                  ... on

GRIDX 3
-------
General Integration Accuracy     IntAcc      ... 4.338
Radial Grid Type                 RadialGrid  ... OptM3 with GC (2021)
Angular Grid (max. ang.)         AngularGrid ... 3 (Lebedev-194)
Angular grid pruning method      GridPruning ... 4 (adaptive)
Weight generation scheme         WeightScheme... Becke
Basis function cutoff            BFCut       ... 1.0000e-11
Integration weight cutoff        WCut        ... 1.0000e-14
Angular grids for H and He will be reduced by one unit
Partially contracted basis set               ... on
Rotationally invariant grid construction     ... off

Total number of grid points                  ...   279712
Total number of batches                      ...     4421
Average number of points per batch           ...       63
Average number of grid points per atom       ...     3008
UseSFitting                                  ... on

Time for X-Grid setup             =    9.063 sec


--------------------
CPCM SOLVATION MODEL
--------------------
CPCM parameters:
  Epsilon                                         ...       9.0800
  Refrac                                          ...       1.4240
  Rsolv                                           ...       1.3000
  Surface type                                    ... GAUSSIAN VDW
  Epsilon function type                           ...         CPCM
Radii:
 Radius for Ni used is    3.6963 Bohr (=   1.9560 Ang.)
 Radius for N  used is    3.5149 Bohr (=   1.8600 Ang.)
 Radius for C  used is    3.8550 Bohr (=   2.0400 Ang.)
 Radius for H  used is    2.4944 Bohr (=   1.3200 Ang.)
Calculating surface                               ...        done! (  0.0s)
GEPOL surface points                              ...         4666
GEPOL Volume                                      ...    5977.7461
GEPOL Surface-area                                ...    2745.8598
Calculating surface distance matrix               ...        done! (  0.1s)
Performing Cholesky decomposition & store         ...        done! (  0.7s)
Overall time for CPCM initialization              ...                 0.9s
--------------
SCF ITERATIONS
--------------
ITER       Energy         Delta-E        Max-DP      RMS-DP      [F,P]     Damp
               ***  Starting incremental Fock matrix formation  ***
  0  -4032.8846332592   0.000000000000 0.08585111  0.00038517  0.3401985 0.7000
  1  -4033.3756072778  -0.490974018584 0.08947675  0.00029854  0.3285240 0.7000
                               ***Turning on DIIS***
  2  -4033.7047682286  -0.329160950869 0.04853513  0.00016755  0.1583304 0.7000
  3  -4033.8645429795  -0.159774750828 0.02465132  0.00008525  0.1123586 0.7000
  4  -4033.9852417395  -0.120698759985 0.04111163  0.00015053  0.0789907 0.0000
  5  -4034.2667973627  -0.281555623233 0.02044708  0.00005925  0.0096686 0.0000
  6  -4034.2716874652  -0.004890102463 0.01618049  0.00003338  0.0048818 0.0000
  7  -4034.2747405607  -0.003053095541 0.01829897  0.00002581  0.0053058 0.0000
  8  -4034.2777405898  -0.003000029089 0.01350569  0.00001928  0.0116915 0.0000
  9  -4034.2800673500  -0.002326760233 0.01031507  0.00001420  0.0143788 0.0000
 10  -4034.2815150784  -0.001447728343 0.01104380  0.00001317  0.0226420 0.0000
 11  -4034.2825778409  -0.001062762559 0.01095680  0.00001275  0.0338050 0.0000
 12  -4034.2834534614  -0.000875620517 0.01058239  0.00001260  0.0436110 0.0000
 13  -4034.2843322703  -0.000878808825 0.01052883  0.00001305  0.0507716 0.0000
 14  -4034.2854825182  -0.001150247908 0.00764870  0.00001063  0.0561687 0.0000
 15  -4034.2863008060  -0.000818287814 0.00258018  0.00000888  0.0592465 0.0000
 16  -4034.2883647270  -0.002063921008 0.00955699  0.00002772  0.0441903 0.0000
 17  -4034.2930535288  -0.004688801834 0.02127494  0.00002820  0.0101996 0.0000
 18  -4034.2965571064  -0.003503577586 0.01663358  0.00002402  0.0211746 0.0000
 19  -4034.2997359235  -0.003178817107 0.01342191  0.00002197  0.0193310 0.0000
               *** Restarting incremental Fock matrix formation ***
                                   *** Resetting DIIS ***
 20  -4034.3012184545  -0.001482530944 0.01157916  0.00009318  0.0188568 0.0000

[...]
    6  1.000  1.000:       0.000000       0.000000       0.000000
    7  1.000  1.000:       0.000000       0.000000       0.000000
    8  1.000  1.000:       0.000000       0.000000       0.000000
    9  1.000  1.000:       0.000000       0.000000       0.000000
   10  1.000  1.000:       0.000000       0.000000       0.000000
   11  1.000  1.000:       0.000000       0.000000       0.000000
   12  1.000  1.000:       0.000000       0.000000       0.000000
   13  1.000  1.000:       0.000000       0.000000       0.000000
   14  1.000  1.000:       0.000000       0.000000       0.000000
   15  1.000  1.000:       0.000000       0.000000       0.000000
   16  1.000  1.000:       0.000000       0.000000       0.000000
   17  1.000  1.000:       0.000000       0.000000       0.000000
   18  1.000  1.000:       0.000000       0.000000       0.000000
   19  1.000  1.000:       0.000000       0.000000       0.000000
   20  1.000  1.000:       0.000000       0.000000       0.000000
   21  1.000  1.000:       0.000000       0.000000       0.000000
   22  1.000  1.000:       0.000000       0.000000       0.000000
   23  1.000  1.000:       0.000000       0.000000       0.000000
   24  1.000  1.000:       0.000000       0.000000       0.000000
   25  1.000  1.000:       0.000000       0.000000       0.000000
   26  1.000  1.000:       0.000000       0.000000       0.000000
   27  1.000  1.000:       0.000000       0.000000       0.000000
   28  1.000  1.000:       0.000000       0.000000       0.000000
   29  1.000  1.000:       0.000000       0.000000       0.000000
   30  1.000  1.000:       0.000000       0.000000       0.000000
   31  1.000  1.000:       0.000000       0.000000       0.000000
   32  1.000  1.000:       0.000000       0.000000       0.000000
   33  1.000  1.000:       0.000000       0.000000       0.000000
   34  1.000  1.000:       0.000000       0.000000       0.000000
   35  1.000  1.000:       0.000000       0.000000       0.000000
   36  1.000  1.000:       0.000000       0.000000       0.000000
   37  1.000  1.000:       0.000000       0.000000       0.000000
   38  1.000  1.000:       0.000000       0.000000       0.000000
   39  1.000  1.000:       0.000000       0.000000       0.000000
   40  1.000  1.000:       0.000000       0.000000       0.000000
   41  1.000  1.000:       0.000000       0.000000       0.000000
   42  1.000  1.000:       0.000000       0.000000       0.000000
   43  1.000  1.000:       0.000000       0.000000       0.000000
   44  1.000  1.000:       0.000000       0.000000       0.000000
   45  1.000  1.000:       0.000000       0.000000       0.000000
   46  1.000  1.000:       0.000000       0.000000       0.000000
   47  1.000  1.000:       0.000000       0.000000       0.000000
   48  1.000  1.000:       0.000000       0.000000       0.000000
   49  1.000  1.000:       0.000000       0.000000       0.000000
   50  1.000  1.000:       0.000000       0.000000       0.000000
   51  1.000  1.000:       0.000000       0.000000       0.000000
   52  1.000  1.000:       0.000000       0.000000       0.000000
   53  1.000  1.000:       0.000000       0.000000       0.000000
   54  1.000  1.000:       0.000000       0.000000       0.000000
   55  1.000  1.000:       0.000000       0.000000       0.000000
   56  1.000  1.000:       0.000000       0.000000       0.000000
   57  1.000  1.000:       0.000000       0.000000       0.000000
   58  1.000  1.000:       0.000000       0.000000       0.000000
   59  1.000  1.000:       0.000000       0.000000       0.000000
   60  1.000  1.000:       0.000000       0.000000       0.000000
   61  1.000  1.000:       0.000000       0.000000       0.000000
   62  1.000  1.000:       0.000000       0.000000       0.000000
   63  1.000  1.000:       0.000000       0.000000       0.000000
   64  1.000  1.000:       0.000000       0.000000       0.000000
   65  1.000  1.000:     110.636048     109.824836     220.460885
   66  1.000  1.000:       0.000000       0.000000       0.000000
   67  1.000  1.000:       0.000000       0.000000       0.000000
   68  1.000  1.000:       0.000079       0.000100       0.000180
   69  1.000  1.000:       0.030002       0.023083       0.053084
   70  1.000  1.000:       0.012519       0.016767       0.029285
   71  1.000  1.000:       0.000000       0.000000       0.000000
   72  1.000  1.000:       0.000000       0.025983       0.025983
   73  1.000  1.000:       0.026756       0.000000       0.026756
   74  1.000  1.000:       0.001249       0.001561       0.002810
   75  1.000  1.000:       0.000000       0.000000       0.000000
   76  1.000  1.000:       0.000148       0.000000       0.000148
   77  1.000  1.000:       0.000000       0.000571       0.000571
   78  1.000  1.000:       0.000038       0.000007       0.000045
   79  1.000  1.000:       0.006106       0.006133       0.012239
   80  1.000  1.000:       0.008207       0.009225       0.017432
   81  1.000  1.000:       0.000000       0.000000       0.000000
   82  1.000  1.000:       0.000000       0.000000       0.000000
   83  1.000  1.000:       0.022465       0.021985       0.044450
   84  1.000  1.000:       0.000000       0.000000       0.000000
   85  1.000  1.000:       0.000000       0.000099       0.000099
   86  1.000  1.000:       0.005032       0.000000       0.005032
   87  1.000  1.000:       0.000000       0.000000       0.000000
   88  1.000  1.000:       0.000898       0.005332       0.006230
   89  1.000  1.000:       0.000064       0.000060       0.000124
   90  1.000  1.000:       0.000000       0.000000       0.000000
   91  1.000  1.000:       0.000000       0.000000       0.000000
   92  1.000  1.000:       0.000000       0.000000       0.000000
   93  1.000  1.000:       0.000156       0.000241       0.000397
   94  1.000  1.000:       0.000245       0.000105       0.000350
   95  1.000  1.000:       0.000323       0.000370       0.000692
   96  1.000  1.000:       0.000129       0.000136       0.000265
   97  1.000  1.000:       0.000000       0.000000       0.000000
   98  1.000  1.000:       0.000000       0.000000       0.000000
   99  1.000  1.000:       0.000000       0.000000       0.000000
  100  1.000  1.000:       0.000000       0.000000       0.000000
  101  1.000  1.000:       0.038233       0.031400       0.069633
  102  1.000  1.000:       0.015830       0.016714       0.032544
  103  1.000  1.000:       0.000141       0.000845       0.000986
  104  1.000  1.000:       0.001946       0.001632       0.003579
  105  1.000  1.000:       0.000000       0.000000       0.000000
  106  1.000  1.000:       0.000000       0.000000       0.000000
  107  1.000  1.000:       0.029217       0.034621       0.063838
  108  1.000  1.000:       0.015546       0.008665       0.024211
  109  1.000  1.000:       0.000000       0.000000       0.000000
  110  1.000  1.000:       0.001646       0.002747       0.004393
  111  1.000  1.000:       0.000000       0.000000       0.000000
  112  1.000  1.000:       0.000000       0.000051       0.000051
  113  1.000  1.000:       0.000000       0.000000       0.000000
  114  1.000  1.000:       0.000000       0.000000       0.000000
  115  1.000  1.000:       0.013785       0.008199       0.021984
  116  1.000  1.000:       0.000213       0.005573       0.005786
  117  1.000  1.000:       0.000000       0.000000       0.000000
  118  1.000  1.000:       0.000000       0.000000       0.000000
  119  1.000  1.000:       0.275361       0.251464       0.526824
  120  1.000  1.000:       0.000826       0.004335       0.005161
  121  1.000  1.000:       0.001092       0.001513       0.002604
  122  1.000  1.000:       0.000013       0.000002       0.000014
  123  1.000  1.000:       0.000000       0.000000       0.000000
  124  1.000  1.000:       0.000000       0.000000       0.000000
  125  1.000  1.000:       0.000000       0.000000       0.000000
  126  1.000  1.000:       0.000000       0.000000       0.000000
  127  1.000  1.000:       0.000000       0.000000       0.000000
  128  1.000  1.000:       0.000000       0.000000       0.000000
  129  1.000  1.000:       0.000584       0.000463       0.001046
  130  1.000  1.000:       0.000043       0.000346       0.000390
  131  1.000  1.000:       0.000000       0.000000       0.000000
  132  1.000  1.000:       0.000126       0.000000       0.000126
  133  1.000  1.000:       0.000000       0.000297       0.000297
  134  1.000  1.000:       0.000748       0.000237       0.000986
  135  1.000  1.000:       0.000000       0.000793       0.000793
  136  1.000  1.000:       0.000142       0.001021       0.001163
  137  1.000  1.000:       0.042200       0.039340       0.081539
  138  1.000  1.000:       0.028163       0.021886       0.050049
  139  1.000  1.000:       0.000000       0.000000       0.000000
  140  1.000  1.000:       0.000000       0.000000       0.000000
  141  1.000  1.000:       0.000000       0.000000       0.000000
  142  1.000  1.000:       0.000000       0.000000       0.000000
  143  1.000  1.000:       0.000000       0.000000       0.000000
  144  1.000  1.000:       0.000000       0.000000       0.000000
  145  1.000  1.000:       0.000000       0.000000       0.000000
  146  1.000  1.000:       0.002832       0.006265       0.009097
  147  1.000  1.000:       0.073475       0.060574       0.134050
  148  1.000  1.000:       0.000000       0.000000       0.000000
  149  1.000  1.000:       0.022442       0.014217       0.036659
  150  1.000  1.000:       0.165465       0.046061       0.211526
  151  1.000  1.000:       0.513446       0.387491       0.900937
  152  1.000  1.000:       0.000204       0.000000       0.000204
  153  1.000  1.000:       0.000000       0.000001       0.000001
  154  1.000  1.000:       0.000000       0.284251       0.284251
  155  1.000  1.000:       0.001423       0.000000       0.001423
  156  1.000  1.000:       0.000000       0.000000       0.000000
  157  1.000  1.000:       0.000000       0.000000       0.000000
  158  1.000  1.000:       0.000000       0.000000       0.000000
  159  1.000  1.000:       0.030302       0.000438       0.030740
  160  1.000  1.000:       0.000000       0.000126       0.000126
  161  1.000  1.000:       0.004124       0.002696       0.006820
  162  1.000  1.000:       0.046885       0.000289       0.047174
  163  1.000  1.000:       0.000000       0.000000       0.000000
  164  1.000  1.000:       0.000000       0.000000       0.000000
  165  1.000  1.000:       0.000677       0.000000       0.000678
  166  1.000  1.000:       0.027610       0.002143       0.029753
  167  1.000  1.000:       0.000000       0.000000       0.000000
  168  1.000  1.000:       0.000000       0.000000       0.000000
  169  1.000  1.000:       0.044555       0.000000       0.044555
  170  1.000  1.000:       0.000000       0.000000       0.000000
  171  1.000  1.000:       0.000000       0.004739       0.004739
  172  1.000  1.000:       0.000320       0.000057       0.000378
  173  1.000  1.000:       0.074188       0.079265       0.153453
  174  1.000  1.000:       0.000037       0.067500       0.067537
  175  1.000  1.000:       0.000000       0.000000       0.000000
  176  1.000  1.000:       0.000000       0.000000       0.000000
  177  1.000  1.000:       0.000448       0.713526       0.713974
  178  1.000  1.000:       0.000017       0.000000       0.000017
  179  1.000  1.000:       0.000000       0.000000       0.000000
  180  1.000  1.000:       0.000000       0.000000       0.000000
  181  1.000  1.000:       0.817685       0.176355       0.994041
  182  1.000  1.000:       0.000000       0.000000       0.000000
  183  1.000  1.000:       0.000000       0.039188       0.039188
  184  1.000  1.000:       0.017653       0.001044       0.018697
  185  1.000  1.000:       0.000048       0.000376       0.000424
  186  1.000  1.000:       0.000000       0.000000       0.000000
  187  1.000  1.000:       0.000000       0.000000       0.000000
  188  1.000  1.000:       0.000001       0.000124       0.000125
  189  1.000  1.000:       0.000000       0.000005       0.000005
  190  1.000  1.000:       0.000000       0.000119       0.000119
  191  1.000  1.000:       0.000000       0.000000       0.000000
  192  1.000  1.000:       0.000199       0.000326       0.000524
  193  1.000  1.000:       0.000000       0.000000       0.000000
  194  1.000  1.000:       0.000029       0.008511       0.008540
  195  1.000  1.000:       0.005900       0.000000       0.005900
  196  1.000  1.000:       0.000000       0.000000       0.000000
  197  1.000  1.000:       0.000000       0.006011       0.006011
  198  1.000  1.000:       0.000672       0.000219       0.000892
  199  1.000  1.000:       0.000000       0.000000       0.000000
  200  1.000  1.000:       0.008261       0.008383       0.016645
  201  1.000  1.000:       0.014557       0.000000       0.014557
  202  1.000  1.000:       0.000000       0.002373       0.002373
  203  1.000  1.000:       0.001119       0.000000       0.001119
  204  1.000  1.000:       0.000805       0.000000       0.000805
  205  1.000  1.000:       0.000000       0.000000       0.000000
  206  1.000  1.000:       0.000000       0.024259       0.024259
  207  1.000  1.000:       0.015426       0.000000       0.015426
  208  1.000  1.000:       0.000000       0.000003       0.000003
  209  1.000  1.000:       0.000000       0.012141       0.012141
  210  1.000  1.000:       0.000147       0.000000       0.000147
  211  1.000  1.000:       0.000000       0.000000       0.000000
  212  1.000  1.000:       0.001515       0.000096       0.001612
  213  1.000  1.000:       0.002608       0.000087       0.002695
  214  1.000  1.000:       0.008688       0.001088       0.009776
  215  1.000  0.000:       0.036884       0.000000       0.036884
  216  1.000  0.000:       0.000000       0.000000       0.000000


--------------------------------------------------------------------------------
----------------------------------------------------------------------------
                           ORCA EULER ANGLE PROGRAM
----------------------------------------------------------------------------

ZFS < 0.3 cm**-1               -->  using g-tensor as reference tensor

Reference tensor               ...  g

g-tensor ordering              ...  |g_min> --> |gx>
                                    |g_mid> --> |gy>
                                    |g_max> --> |gz>

A- and EFG-tensor ordering     ...  the axes |Ax>, |Qx>, |Ay>, etc. are assigned
                                    such that the Euler rotation is minimal. You
                                    can find the respective eigenvalues as Ax,
                                    EFGx, Ay, etc. in the tables below.
                                    The relation of |Ax>, |Ay>,  etc. to Amin, Amid, etc.
                                    (as printed in the ORCA EPR/NMR CALCULATION Output)
                                    is obtained in the detailed printout.

Euler rotation around          ...  z - y - z
   First rotation              -->  by alpha around z
   Second rotation             -->  by beta around y'
   Third rotation              -->  by gamma around z''
   Positive / Negative angle   -->  clockwise / counterclockwise rotation

Plot EFG-tensors                    (-)
Plot HFC-tensors                    (-)
Detailed Printout                   (-)

-------------------------------------------------------------------------
          Euler rotation of hyperfine tensor to g-tensor
-------------------------------------------------------------------------

-------------------------------------------------------------------
 Atom  |   Alpha    Beta    Gamma   |   Ax       Ay       Az 
       |          [degrees]         |           [MHz]         
-------------------------------------------------------------------
  0Ni     -39.1      0.2     65.0      44.29    46.14    39.62
-------------------------------------------------------------------


-------------------------------------------------------------------------------
    Euler rotation of Electric Field Gradient (EFG) tensor to g-tensor
-------------------------------------------------------------------------------

-------------------------------------------------------------------
 Atom  |   Alpha    Beta    Gamma  |   EFGx     EFGy     EFGz
       |          [degrees]        |         [a.u.**-3]       
-------------------------------------------------------------------
  0Ni     -95.5      0.2     65.4      0.23     0.42    -0.65
-------------------------------------------------------------------


Maximum memory used throughout the entire EPRNMR-calculation: 4924.3 MB
[1656196149.028092] [c302-011:286059:0]        rc_iface.c:506  UCX  WARN  using maximal value for RETRY_COUNT (7) instead of 40
[1656196149.028095] [c302-011:286057:0]        rc_iface.c:506  UCX  WARN  using maximal value for RETRY_COUNT (7) instead of 40
[1656196149.031098] [c302-011:286059:0]        rc_iface.c:506  UCX  WARN  using maximal value for RETRY_COUNT (7) instead of 40
[1656196149.031198] [c302-011:286057:0]        rc_iface.c:506  UCX  WARN  using maximal value for RETRY_COUNT (7) instead of 40
[1656196149.032318] [c302-011:286058:0]        rc_iface.c:506  UCX  WARN  using maximal value for RETRY_COUNT (7) instead of 40
[1656196149.033510] [c302-011:286056:0]        rc_iface.c:506  UCX  WARN  using maximal value for RETRY_COUNT (7) instead of 40
[1656196149.034248] [c302-011:286060:0]        rc_iface.c:506  UCX  WARN  using maximal value for RETRY_COUNT (7) instead of 40
[1656196149.035285] [c302-011:286058:0]        rc_iface.c:506  UCX  WARN  using maximal value for RETRY_COUNT (7) instead of 40
[1656196149.035904] [c302-011:286056:0]        rc_iface.c:506  UCX  WARN  using maximal value for RETRY_COUNT (7) instead of 40
[1656196149.036725] [c302-011:286060:0]        rc_iface.c:506  UCX  WARN  using maximal value for RETRY_COUNT (7) instead of 40
[1656196149.041398] [c302-011:286063:0]        rc_iface.c:506  UCX  WARN  using maximal value for RETRY_COUNT (7) instead of 40
[1656196149.041589] [c302-011:286061:0]        rc_iface.c:506  UCX  WARN  using maximal value for RETRY_COUNT (7) instead of 40
[1656196149.041588] [c302-011:286062:0]        rc_iface.c:506  UCX  WARN  using maximal value for RETRY_COUNT (7) instead of 40
[1656196149.041681] [c302-011:286064:0]        rc_iface.c:506  UCX  WARN  using maximal value for RETRY_COUNT (7) instead of 40
[1656196149.045295] [c302-011:286063:0]        rc_iface.c:506  UCX  WARN  using maximal value for RETRY_COUNT (7) instead of 40
[1656196149.045247] [c302-011:286061:0]        rc_iface.c:506  UCX  WARN  using maximal value for RETRY_COUNT (7) instead of 40
[1656196149.045636] [c302-011:286062:0]        rc_iface.c:506  UCX  WARN  using maximal value for RETRY_COUNT (7) instead of 40
[1656196149.045806] [c302-011:286064:0]        rc_iface.c:506  UCX  WARN  using maximal value for RETRY_COUNT (7) instead of 40

Timings for individual modules:

Sum of individual times         ...    25444.438 sec (= 424.074 min)
GTO integral calculation        ...       21.649 sec (=   0.361 min)   0.1 %
Relativistic integrals          ...       25.809 sec (=   0.430 min)   0.1 %
Spin-Orbit-Coupling Matrices    ...      141.137 sec (=   2.352 min)   0.6 %
SCF iterations                  ...     4129.848 sec (=  68.831 min)  16.2 %
EPR/NMR calculation             ...    21125.995 sec (= 352.100 min)  83.0 %
                             ****ORCA TERMINATED NORMALLY****
TOTAL RUN TIME: 0 days 7 hours 4 minutes 20 seconds 715 msec
