
                                 *****************
                                 * O   R   C   A *
                                 *****************

                                            #,                                       
                                            ###                                      
                                            ####                                     
                                            #####                                    
                                            ######                                   
                                           ########,                                 
                                     ,,################,,,,,                         
                               ,,#################################,,                 
                          ,,##########################################,,             
                       ,#########################################, ''#####,          
                    ,#############################################,,   '####,        
                  ,##################################################,,,,####,       
                ,###########''''           ''''###############################       
              ,#####''   ,,,,##########,,,,          '''####'''          '####       
            ,##' ,,,,###########################,,,                        '##       
           ' ,,###''''                  '''############,,,                           
         ,,##''                                '''############,,,,        ,,,,,,###''
      ,#''                                            '''#######################'''  
     '                                                          ''''####''''         
             ,#######,   #######,   ,#######,      ##                                
            ,#'     '#,  ##    ##  ,#'     '#,    #''#        ######   ,####,        
            ##       ##  ##   ,#'  ##            #'  '#       #        #'  '#        
            ##       ##  #######   ##           ,######,      #####,   #    #        
            '#,     ,#'  ##    ##  '#,     ,#' ,#      #,         ##   #,  ,#        
             '#######'   ##     ##  '#######'  #'      '#     #####' # '####'        



                  #######################################################
                  #                        -***-                        #
                  #          Department of theory and spectroscopy      #
                  #    Directorship and core code : Frank Neese         #
                  #        Max Planck Institute fuer Kohlenforschung    #
                  #                Kaiser Wilhelm Platz 1               #
                  #                 D-45470 Muelheim/Ruhr               #
                  #                      Germany                        #
                  #                                                     #
                  #                  All rights reserved                #
                  #                        -***-                        #
                  #######################################################


                         Program Version 5.0.3 -  RELEASE  -


 With contributions from (in alphabetic order):
   Daniel Aravena         : Magnetic Suceptibility
   Michael Atanasov       : Ab Initio Ligand Field Theory (pilot matlab implementation)
   Alexander A. Auer      : GIAO ZORA, VPT2 properties, NMR spectrum
   Ute Becker             : Parallelization
   Giovanni Bistoni       : ED, misc. LED, open-shell LED, HFLD
   Martin Brehm           : Molecular dynamics
   Dmytro Bykov           : SCF Hessian
   Vijay G. Chilkuri      : MRCI spin determinant printing, contributions to CSF-ICE
   Dipayan Datta          : RHF DLPNO-CCSD density
   Achintya Kumar Dutta   : EOM-CC, STEOM-CC
   Dmitry Ganyushin       : Spin-Orbit,Spin-Spin,Magnetic field MRCI
   Miquel Garcia          : C-PCM and meta-GGA Hessian, CC/C-PCM, Gaussian charge scheme
   Yang Guo               : DLPNO-NEVPT2, F12-NEVPT2, CIM, IAO-localization
   Andreas Hansen         : Spin unrestricted coupled pair/coupled cluster methods
   Benjamin Helmich-Paris : MC-RPA, TRAH-SCF, COSX integrals
   Lee Huntington         : MR-EOM, pCC
   Robert Izsak           : Overlap fitted RIJCOSX, COSX-SCS-MP3, EOM
   Marcus Kettner         : VPT2
   Christian Kollmar      : KDIIS, OOCD, Brueckner-CCSD(T), CCSD density, CASPT2, CASPT2-K
   Simone Kossmann        : Meta GGA functionals, TD-DFT gradient, OOMP2, MP2 Hessian
   Martin Krupicka        : Initial AUTO-CI
   Lucas Lang             : DCDCAS
   Marvin Lechner         : AUTO-CI (C++ implementation), FIC-MRCC
   Dagmar Lenk            : GEPOL surface, SMD
   Dimitrios Liakos       : Extrapolation schemes; Compound Job, initial MDCI parallelization
   Dimitrios Manganas     : Further ROCIS development; embedding schemes
   Dimitrios Pantazis     : SARC Basis sets
   Anastasios Papadopoulos: AUTO-CI, single reference methods and gradients
   Taras Petrenko         : DFT Hessian,TD-DFT gradient, ASA, ECA, R-Raman, ABS, FL, XAS/XES, NRVS
   Peter Pinski           : DLPNO-MP2, DLPNO-MP2 Gradient
   Christoph Reimann      : Effective Core Potentials
   Marius Retegan         : Local ZFS, SOC
   Christoph Riplinger    : Optimizer, TS searches, QM/MM, DLPNO-CCSD(T), (RO)-DLPNO pert. Triples
   Tobias Risthaus        : Range-separated hybrids, TD-DFT gradient, RPA, STAB
   Michael Roemelt        : Original ROCIS implementation
   Masaaki Saitow         : Open-shell DLPNO-CCSD energy and density
   Barbara Sandhoefer     : DKH picture change effects
   Avijit Sen             : IP-ROCIS
   Kantharuban Sivalingam : CASSCF convergence, NEVPT2, FIC-MRCI
   Bernardo de Souza      : ESD, SOC TD-DFT
   Georgi Stoychev        : AutoAux, RI-MP2 NMR, DLPNO-MP2 response
   Willem Van den Heuvel  : Paramagnetic NMR
   Boris Wezisla          : Elementary symmetry handling
   Frank Wennmohs         : Technical directorship


 We gratefully acknowledge several colleagues who have allowed us to
 interface, adapt or use parts of their codes:
   Stefan Grimme, W. Hujo, H. Kruse, P. Pracht,  : VdW corrections, initial TS optimization,
                  C. Bannwarth, S. Ehlert          DFT functionals, gCP, sTDA/sTD-DF
   Ed Valeev, F. Pavosevic, A. Kumar             : LibInt (2-el integral package), F12 methods
   Garnet Chan, S. Sharma, J. Yang, R. Olivares  : DMRG
   Ulf Ekstrom                                   : XCFun DFT Library
   Mihaly Kallay                                 : mrcc  (arbitrary order and MRCC methods)
   Jiri Pittner, Ondrej Demel                    : Mk-CCSD
   Frank Weinhold                                : gennbo (NPA and NBO analysis)
   Christopher J. Cramer and Donald G. Truhlar   : smd solvation model
   Lars Goerigk                                  : TD-DFT with DH, B97 family of functionals
   V. Asgeirsson, H. Jonsson                     : NEB implementation
   FAccTs GmbH                                   : IRC, NEB, NEB-TS, DLPNO-Multilevel, CI-OPT
                                                   MM, QMMM, 2- and 3-layer-ONIOM, Crystal-QMMM,
                                                   LR-CPCM, SF, NACMEs, symmetry and pop. for TD-DFT,
                                                   nearIR, NL-DFT gradient (VV10), updates on ESD,
                                                   ML-optimized integration grids
   S Lehtola, MJT Oliveira, MAL Marques          : LibXC Library
   Liviu Ungur et al                             : ANISO software


 Your calculation uses the libint2 library for the computation of 2-el integrals
 For citations please refer to: http://libint.valeyev.net

 Your ORCA version has been built with support for libXC version: 5.1.0
 For citations please refer to: https://tddft.org/programs/libxc/

 This ORCA versions uses:
   CBLAS   interface :  Fast vector & matrix operations
   LAPACKE interface :  Fast linear algebra routines
   SCALAPACK package :  Parallel linear algebra routines
   Shared memory     :  Shared parallel matrices
   BLAS/LAPACK       :  OpenBLAS 0.3.15  USE64BITINT DYNAMIC_ARCH NO_AFFINITY Haswell SINGLE_THREADED
        Core in use  :  Haswell
   Copyright (c) 2011-2014, The OpenBLAS Project


================================================================================

----- Orbital basis set information -----
Your calculation utilizes the basis: def2-TZVP
   F. Weigend and R. Ahlrichs, Phys. Chem. Chem. Phys. 7, 3297 (2005).

----- AuxJ basis set information -----
Your calculation utilizes the auxiliary basis: def2/J
   F. Weigend, Phys. Chem. Chem. Phys. 8, 1057 (2006).

----- AuxC basis set information -----
Your calculation utilizes the auxiliary basis: def2-TZVP/C
  H-La, Hf-Rn : A. Hellweg, C. Hattig, S. Hofener and W. Klopper, Theor. Chem. Acc. 117, 587 (2007).
        Ce-Lu : J. Chmela and M. E. Harding, Mol. Phys. (2018).

================================================================================
                                        WARNINGS
                       Please study these warnings very carefully!
================================================================================


WARNING: Post HF methods need fully converged wavefunctions
  ===> : Setting SCFConvForced true
         You can overwrite this default with %scf ConvForced false 


WARNING: MDCI localization with Augmented Hessian Foster-Boys
  ===> : Switching off randomization!

INFO   : the flag for use of the SHARK integral package has been found!

================================================================================
                                       INPUT FILE
================================================================================
NAME = /scratch/dca0099.335131/Fluor_TZVP_naphtalene.inp
|  1> !STEOM-DLPNO-CCSD DEF2-TZVP DEF2-TZVP/C def2/J RIJCOSX TIGHTSCF CPCM(toluene) RI-SOMF(1X) ESD(FlUOR) NOSOSCF
|  2> 
|  3> %maxcore  120000
|  4> 
|  5> %mdci
|  6> 	NRoots 5 #no of roots
|  7> 	IROOT 1
|  8> 	DOSOLV  TRUE
|  9> end
| 10> 
| 11> %ESD 
| 12> 	GSHESSIAN "Fluor_naphtalene.GS.hess"
| 13> 	ESHESSIAN "Fluor_naphtalene.ES.hess"
| 14> 	DOHT TRUE
| 15> 	LINES VOIGT
| 16> 	LINEW 75
| 17> 	INLINEW 200
| 18> END
| 19> 
| 20> * xyz 0 1
| 21>   C   -8.96121784812031      0.24268337776474      0.00033489819780
| 22>   C   -7.59059951968750      0.24371545417717      0.00015198745293
| 23>   C   -6.86693343298993      1.46030211281662      0.00023475747764
| 24>   C   -7.58799559947894      2.69205204792658      0.00050997612007
| 25>   C   -9.00310055342497      2.65617792309838      0.00069280404132
| 26>   C   -9.67467975506609      1.46137108557408      0.00060814266859
| 27>   H   -4.90710891896316      0.55933209328366     -0.00016767341217
| 28>   H   -9.50425962457938     -0.69409088109167      0.00026687164944
| 29>   H   -7.04027568972576     -0.68980140749936     -0.00005544925225
| 30>   C   -5.45183741157070      1.49616229462644      0.00005614405431
| 31>   C   -6.86437066397562      3.90865807672096      0.00059715121121
| 32>   H   -9.54784882567221      3.59299899012176      0.00091076313657
| 33>   H   -10.75737868171900      1.44626581403603      0.00074783188745
| 34>   C   -5.49375285629476      3.90967522182525      0.00042517705822
| 35>   C   -4.78028626336214      2.69100004727155      0.00015218718405
| 36>   H   -7.41470937199301      4.84216327382740      0.00079951152285
| 37>   H   -4.95071130646203      4.84645090655905      0.00050815101568
| 38>   H   -3.69758703691443      2.70613312896136      0.00001676798628
| 39> *
| 40> 
| 41>                          ****END OF INPUT****
================================================================================

                       ****************************
                       * Single Point Calculation *
                       ****************************

The geometry is being displaced to its center of mass!
---------------------------------
CARTESIAN COORDINATES (ANGSTROEM)
---------------------------------
  C     -1.733740   -1.833496   -0.000042
  C     -0.363122   -1.832464   -0.000224
  C      0.360544   -0.615878   -0.000142
  C     -0.360518    0.615872    0.000134
  C     -1.775623    0.579998    0.000316
  C     -2.447202   -0.614809    0.000232
  H      2.320369   -1.516848   -0.000544
  H     -2.276782   -2.770271   -0.000110
  H      0.187202   -2.765981   -0.000432
  C      1.775640   -0.580018   -0.000320
  C      0.363107    1.832478    0.000221
  H     -2.320371    1.516819    0.000534
  H     -3.529901   -0.629914    0.000371
  C      1.733725    1.833495    0.000049
  C      2.447192    0.614820   -0.000224
  H     -0.187232    2.765983    0.000423
  H      2.276767    2.770271    0.000132
  H      3.529891    0.629953   -0.000360

----------------------------
CARTESIAN COORDINATES (A.U.)
----------------------------
  NO LB      ZA    FRAG     MASS         X           Y           Z
   0 C     6.0000    0    12.011   -3.276294   -3.464806   -0.000079
   1 C     6.0000    0    12.011   -0.686200   -3.462856   -0.000424
   2 C     6.0000    0    12.011    0.681330   -1.163840   -0.000268
   3 C     6.0000    0    12.011   -0.681280    1.163830    0.000252
   4 C     6.0000    0    12.011   -3.355441    1.096037    0.000598
   5 C     6.0000    0    12.011   -4.624541   -1.161820    0.000438
   6 H     1.0000    0     1.008    4.384862   -2.866427   -0.001028
   7 H     1.0000    0     1.008   -4.302494   -5.235053   -0.000207
   8 H     1.0000    0     1.008    0.353761   -5.226947   -0.000816
   9 C     6.0000    0    12.011    3.355474   -1.096074   -0.000605
  10 C     6.0000    0    12.011    0.686173    3.462882    0.000417
  11 H     1.0000    0     1.008   -4.384866    2.866373    0.001010
  12 H     1.0000    0     1.008   -6.670546   -1.190365    0.000702
  13 C     6.0000    0    12.011    3.276265    3.464804    0.000092
  14 C     6.0000    0    12.011    4.624522    1.161842   -0.000424
  15 H     1.0000    0     1.008   -0.353816    5.226951    0.000799
  16 H     1.0000    0     1.008    4.302465    5.235054    0.000249
  17 H     1.0000    0     1.008    6.670527    1.190439   -0.000680

--------------------------------
INTERNAL COORDINATES (ANGSTROEM)
--------------------------------
 C      0   0   0     0.000000000000     0.00000000     0.00000000
 C      1   0   0     1.370618729215     0.00000000     0.00000000
 C      2   1   0     1.415547847961   120.78872804     0.00000000
 C      3   2   1     1.427283653073   118.90985599     0.00000000
 C      4   3   2     1.415559612641   118.89237357     0.00000000
 C      5   4   3     1.370613734879   120.79173451     0.00000000
 H      3   2   1     2.157002379189    96.05640884   180.00020823
 H      1   2   3     1.082792864616   120.14372570   179.99985320
 H      2   1   3     1.083655891826   120.47691903   179.99977039
 C      7   3   2     1.083688150208    35.13457172   180.00086861
 C      4   3   2     1.415543458952   118.91168837   179.99979670
 H      5   4   3     1.083690195232   118.72521347   179.99944983
 H      6   5   4     1.082804301117   120.13885846   180.00012170
 C     11   4   3     1.370618195885   120.78627157     0.00000000
 C     10   7   3     1.370626940137   120.48585441   180.00054876
 H     11   4   3     1.083653398240   118.73519446   179.99959498
 H     14  11   4     1.082793985594   120.14305325   180.00086116
 H     15  10   7     1.082804988652   120.13867409     0.00000000

---------------------------
INTERNAL COORDINATES (A.U.)
---------------------------
 C      0   0   0     0.000000000000     0.00000000     0.00000000
 C      1   0   0     2.590094032239     0.00000000     0.00000000
 C      2   1   0     2.674997762108   120.78872804     0.00000000
 C      3   2   1     2.697175219731   118.90985599     0.00000000
 C      4   3   2     2.675019994131   118.89237357     0.00000000
 C      5   4   3     2.590084594312   120.79173451     0.00000000
 H      3   2   1     4.076143766884    96.05640884   180.00020823
 H      1   2   3     2.046181973888   120.14372570   179.99985320
 H      2   1   3     2.047812858960   120.47691903   179.99977039
 C      7   3   2     2.047873818468    35.13457172   180.00086861
 C      4   3   2     2.674989468082   118.91168837   179.99979670
 H      5   4   3     2.047877683004   118.72521347   179.99944983
 H      6   5   4     2.046203585742   120.13885846   180.00012170
 C     11   4   3     2.590093024392   120.78627157     0.00000000
 C     10   7   3     2.590109548634   120.48585441   180.00054876
 H     11   4   3     2.047808146766   118.73519446   179.99959498
 H     14  11   4     2.046184092229   120.14305325   180.00086116
 H     15  10   7     2.046204884997   120.13867409     0.00000000

---------------------
BASIS SET INFORMATION
---------------------
There are 2 groups of distinct atoms

 Group   1 Type C   : 11s6p2d1f contracted to 5s3p2d1f pattern {62111/411/11/1}
 Group   2 Type H   : 5s1p contracted to 3s1p pattern {311/1}

Atom   0C    basis set group =>   1
Atom   1C    basis set group =>   1
Atom   2C    basis set group =>   1
Atom   3C    basis set group =>   1
Atom   4C    basis set group =>   1
Atom   5C    basis set group =>   1
Atom   6H    basis set group =>   2
Atom   7H    basis set group =>   2
Atom   8H    basis set group =>   2
Atom   9C    basis set group =>   1
Atom  10C    basis set group =>   1
Atom  11H    basis set group =>   2
Atom  12H    basis set group =>   2
Atom  13C    basis set group =>   1
Atom  14C    basis set group =>   1
Atom  15H    basis set group =>   2
Atom  16H    basis set group =>   2
Atom  17H    basis set group =>   2
---------------------------------
AUXILIARY/J BASIS SET INFORMATION
---------------------------------
There are 2 groups of distinct atoms

 Group   1 Type C   : 12s5p4d2f1g contracted to 6s4p3d1f1g pattern {711111/2111/211/2/1}
 Group   2 Type H   : 5s2p1d contracted to 3s1p1d pattern {311/2/1}

Atom   0C    basis set group =>   1
Atom   1C    basis set group =>   1
Atom   2C    basis set group =>   1
Atom   3C    basis set group =>   1
Atom   4C    basis set group =>   1
Atom   5C    basis set group =>   1
Atom   6H    basis set group =>   2
Atom   7H    basis set group =>   2
Atom   8H    basis set group =>   2
Atom   9C    basis set group =>   1
Atom  10C    basis set group =>   1
Atom  11H    basis set group =>   2
Atom  12H    basis set group =>   2
Atom  13C    basis set group =>   1
Atom  14C    basis set group =>   1
Atom  15H    basis set group =>   2
Atom  16H    basis set group =>   2
Atom  17H    basis set group =>   2
---------------------------------
AUXILIARY/C BASIS SET INFORMATION
---------------------------------
There are 2 groups of distinct atoms

 Group   1 Type C   : 8s6p5d3f1g contracted to 8s6p4d3f1g pattern {11111111/111111/2111/111/1}
 Group   2 Type H   : 4s3p2d contracted to 4s2p1d pattern {1111/21/2}

Atom   0C    basis set group =>   1
Atom   1C    basis set group =>   1
Atom   2C    basis set group =>   1
Atom   3C    basis set group =>   1
Atom   4C    basis set group =>   1
Atom   5C    basis set group =>   1
Atom   6H    basis set group =>   2
Atom   7H    basis set group =>   2
Atom   8H    basis set group =>   2
Atom   9C    basis set group =>   1
Atom  10C    basis set group =>   1
Atom  11H    basis set group =>   2
Atom  12H    basis set group =>   2
Atom  13C    basis set group =>   1
Atom  14C    basis set group =>   1
Atom  15H    basis set group =>   2
Atom  16H    basis set group =>   2
Atom  17H    basis set group =>   2
------------------------------------------------------------------------------
                           ORCA GTO INTEGRAL CALCULATION
                           -- RI-GTO INTEGRALS CHOSEN --
------------------------------------------------------------------------------
------------------------------------------------------------------------------
                   ___                                                        
                  /   \      - P O W E R E D   B Y -                         
                 /     \                                                     
                 |  |  |   _    _      __       _____    __    __             
                 |  |  |  | |  | |    /  \     |  _  \  |  |  /  |          
                  \  \/   | |  | |   /    \    | | | |  |  | /  /          
                 / \  \   | |__| |  /  /\  \   | |_| |  |  |/  /          
                |  |  |   |  __  | /  /__\  \  |    /   |      \           
                |  |  |   | |  | | |   __   |  |    \   |  |\   \          
                \     /   | |  | | |  |  |  |  | |\  \  |  | \   \       
                 \___/    |_|  |_| |__|  |__|  |_| \__\ |__|  \__/        
                                                                              
                      - O R C A' S   B I G   F R I E N D -                    
                                      &                                       
                       - I N T E G R A L  F E E D E R -                       
                                                                              
 v1 FN, 2020, v2 2021                                                         
------------------------------------------------------------------------------


Reading SHARK input file /scratch/dca0099.335131/Fluor_TZVP_naphtalene.SHARKINP.tmp ... ok
----------------------
SHARK INTEGRAL PACKAGE
----------------------

Number of atoms                             ...     18
Number of basis functions                   ...    358
Number of shells                            ...    142
Maximum angular momentum                    ...      3
Integral batch strategy                     ... SHARK/LIBINT Hybrid
RI-J (if used) integral strategy            ... SPLIT-RIJ (Revised 2003 algorithm where possible)
Printlevel                                  ...      1
Contraction scheme used                     ... SEGMENTED contraction
Coulomb Range Separation                    ... NOT USED
Exchange Range Separation                   ... NOT USED
Finite Nucleus Model                        ... NOT USED
Auxiliary Coulomb fitting basis             ... AVAILABLE
   # of basis functions in Aux-J            ...    578
   # of shells in Aux-J                     ...    190
   Maximum angular momentum in Aux-J        ...      4
Auxiliary J/K fitting basis                 ... NOT available
Auxiliary Correlation fitting basis         ... AVAILABLE
   # of basis functions in Aux-C            ...    880
   # of shells in Aux-C                     ...    276
   Maximum angular momentum in Aux-C        ...      4
Auxiliary 'external' fitting basis          ... NOT available
Integral threshold                          ...     2.500000e-11
Primitive cut-off                           ...     2.500000e-12
Primitive pair pre-selection threshold      ...     2.500000e-12

Calculating pre-screening integrals         ... done (  0.2 sec) Dimension = 142
Organizing shell pair data                  ... done (  0.2 sec)
Shell pair information
Total number of shell pairs                 ...     10153
Shell pairs after pre-screening             ...      9202
Total number of primitive shell pairs       ...     31120
Primitive shell pairs kept                  ...     20969
          la=0 lb=0:   2378 shell pairs
          la=1 lb=0:   2554 shell pairs
          la=1 lb=1:    697 shell pairs
          la=2 lb=0:   1364 shell pairs
          la=2 lb=1:    728 shell pairs
          la=2 lb=2:    202 shell pairs
          la=3 lb=0:    668 shell pairs
          la=3 lb=1:    364 shell pairs
          la=3 lb=2:    192 shell pairs
          la=3 lb=3:     55 shell pairs

Calculating one electron integrals          ... done (  0.1 sec)
Calculating RI/J V-Matrix + Cholesky decomp.... done (  0.0 sec)
Calculating RI/C V-Matrix + Cholesky decomp.... done (  0.1 sec)
Calculating Nuclear repulsion               ... done (  0.0 sec) ENN=    459.060186556575 Eh

SHARK setup successfully completed in   1.2 seconds

Maximum memory used throughout the entire GTOINT-calculation: 140.7 MB
-------------------------------------------------------------------------------
                                 ORCA SCF
-------------------------------------------------------------------------------

------------
SCF SETTINGS
------------
Hamiltonian:
 Ab initio Hamiltonian  Method          .... Hartree-Fock(GTOs)
 RI-approximation to the Coulomb term is turned on
   Number of AuxJ basis functions       .... 578
   RIJ-COSX (HFX calculated with COS-X)).... on


General Settings:
 Integral files         IntName         .... /scratch/dca0099.335131/Fluor_TZVP_naphtalene
 Hartree-Fock type      HFTyp           .... RHF
 Total Charge           Charge          ....    0
 Multiplicity           Mult            ....    1
 Number of Electrons    NEL             ....   68
 Basis Dimension        Dim             ....  358
 Nuclear Repulsion      ENuc            ....    459.0601865566 Eh

Convergence Acceleration:
 DIIS                   CNVDIIS         .... on
   Start iteration      DIISMaxIt       ....    12
   Startup error        DIISStart       ....  0.200000
   # of expansion vecs  DIISMaxEq       ....     5
   Bias factor          DIISBfac        ....   1.050
   Max. coefficient     DIISMaxC        ....  10.000
 Trust-Rad. Augm. Hess. CNVTRAH         .... auto
   Auto Start mean grad. ratio tolernc. ....  1.125000
   Auto Start start iteration           ....    20
   Auto Start num. interpolation iter.  ....    10
   Max. Number of Micro iterations      ....    16
   Max. Number of Macro iterations      .... Maxiter - #DIIS iter
   Number of Davidson start vectors     ....     2
   Converg. threshold I  (grad. norm)   ....   1.000e-05
   Converg. threshold II (energy diff.) ....   1.000e-08
   Grad. Scal. Fac. for Micro threshold ....   0.100
   Minimum threshold for Micro iter.    ....   0.010
   NR start threshold (gradient norm)   ....   0.001
   Initial trust radius                 ....   0.400
   Minimum AH scaling param. (alpha)    ....   1.000
   Maximum AH scaling param. (alpha)    .... 1000.000
   Orbital update algorithm             .... Taylor
   White noise on init. David. guess    .... on
   Maximum white noise                  ....   0.010
   Quad. conv. algorithm                .... NR
 SOSCF                  CNVSOSCF        .... off
 Level Shifting         CNVShift        .... on
   Level shift para.    LevelShift      ....    0.2500
   Turn off err/grad.   ShiftErr        ....    0.0010
 Zerner damping         CNVZerner       .... off
 Static damping         CNVDamp         .... on
   Fraction old density DampFac         ....    0.7000
   Max. Damping (<1)    DampMax         ....    0.9800
   Min. Damping (>=0)   DampMin         ....    0.0000
   Turn off err/grad.   DampErr         ....    0.1000
 Fernandez-Rico         CNVRico         .... off

SCF Procedure:
 Maximum # iterations   MaxIter         ....   125
 SCF integral mode      SCFMode         .... Direct
   Integral package                     .... SHARK and LIBINT hybrid scheme
 Reset frequency        DirectResetFreq ....    20
 Integral Threshold     Thresh          ....  2.500e-11 Eh
 Primitive CutOff       TCut            ....  2.500e-12 Eh

Convergence Tolerance:
 Convergence Check Mode ConvCheckMode   .... Total+1el-Energy
 Convergence forced     ConvForced      .... 1
 Energy Change          TolE            ....  1.000e-08 Eh
 1-El. energy change                    ....  1.000e-05 Eh
 DIIS Error             TolErr          ....  5.000e-07


Diagonalization of the overlap matrix:
Smallest eigenvalue                        ... 6.497e-06
Time for diagonalization                   ...    0.073 sec
Threshold for overlap eigenvalues          ... 1.000e-08
Number of eigenvalues below threshold      ... 0
Time for construction of square roots      ...    0.018 sec
Total time needed                          ...    0.092 sec

Time for model grid setup =    0.738 sec

------------------------------
INITIAL GUESS: MODEL POTENTIAL
------------------------------
Loading Hartree-Fock densities                     ... done
Calculating cut-offs                               ... done
Initializing the effective Hamiltonian             ... done
Setting up the integral package (SHARK)            ... done
Starting the Coulomb interaction                   ... done (   0.8 sec)
Reading the grid                                   ... done
Mapping shells                                     ... done
Starting the XC term evaluation                    ... done (   0.5 sec)
Transforming the Hamiltonian                       ... done (   0.0 sec)
Diagonalizing the Hamiltonian                      ... done (   0.0 sec)
Back transforming the eigenvectors                 ... done (   0.0 sec)
Now organizing SCF variables                       ... done
                      ------------------
                      INITIAL GUESS DONE (   2.1 sec)
                      ------------------
--------------------
COSX GRID GENERATION
--------------------

GRIDX 1
-------
General Integration Accuracy     IntAcc      ... 3.816
Radial Grid Type                 RadialGrid  ... OptM3 with GC (2021)
Angular Grid (max. ang.)         AngularGrid ... 1 (Lebedev-50)
Angular grid pruning method      GridPruning ... 4 (adaptive)
Weight generation scheme         WeightScheme... Becke
Basis function cutoff            BFCut       ... 1.0000e-11
Integration weight cutoff        WCut        ... 1.0000e-14
Angular grids for H and He will be reduced by one unit
Partially contracted basis set               ... on
Rotationally invariant grid construction     ... off

Total number of grid points                  ...    10956
Total number of batches                      ...      176
Average number of points per batch           ...       62
Average number of grid points per atom       ...      609
UseSFitting                                  ... on

GRIDX 2
-------
General Integration Accuracy     IntAcc      ... 4.020
Radial Grid Type                 RadialGrid  ... OptM3 with GC (2021)
Angular Grid (max. ang.)         AngularGrid ... 2 (Lebedev-110)
Angular grid pruning method      GridPruning ... 4 (adaptive)
Weight generation scheme         WeightScheme... Becke
Basis function cutoff            BFCut       ... 1.0000e-11
Integration weight cutoff        WCut        ... 1.0000e-14
Angular grids for H and He will be reduced by one unit
Partially contracted basis set               ... on
Rotationally invariant grid construction     ... off

Total number of grid points                  ...    23850
Total number of batches                      ...      384
Average number of points per batch           ...       62
Average number of grid points per atom       ...     1325
UseSFitting                                  ... on

GRIDX 3
-------
General Integration Accuracy     IntAcc      ... 4.338
Radial Grid Type                 RadialGrid  ... OptM3 with GC (2021)
Angular Grid (max. ang.)         AngularGrid ... 3 (Lebedev-194)
Angular grid pruning method      GridPruning ... 4 (adaptive)
Weight generation scheme         WeightScheme... Becke
Basis function cutoff            BFCut       ... 1.0000e-11
Integration weight cutoff        WCut        ... 1.0000e-14
Angular grids for H and He will be reduced by one unit
Partially contracted basis set               ... on
Rotationally invariant grid construction     ... off

Total number of grid points                  ...    52490
Total number of batches                      ...      830
Average number of points per batch           ...       63
Average number of grid points per atom       ...     2916
UseSFitting                                  ... on

Time for X-Grid setup             =    2.074 sec


--------------------
CPCM SOLVATION MODEL
--------------------
CPCM parameters:
  Epsilon                                         ...       2.4000
  Refrac                                          ...       1.4970
  Rsolv                                           ...       1.3000
  Surface type                                    ... GAUSSIAN VDW
  Epsilon function type                           ...         CPCM
Radii:
 Radius for C  used is    3.8550 Bohr (=   2.0400 Ang.)
 Radius for H  used is    2.4944 Bohr (=   1.3200 Ang.)
Calculating surface                               ...        done! (  0.0s)
GEPOL surface points                              ...          996
GEPOL Volume                                      ...    1144.6715
GEPOL Surface-area                                ...     615.5680
Calculating surface distance matrix               ...        done! (  0.0s)
Performing Cholesky decomposition & store         ...        done! (  0.0s)
Overall time for CPCM initialization              ...                 0.0s
--------------
SCF ITERATIONS
--------------
ITER       Energy         Delta-E        Max-DP      RMS-DP      [F,P]     Damp
               ***  Starting incremental Fock matrix formation  ***
  0   -383.0914133718   0.000000000000 0.03064567  0.00089105  0.2240321 0.7000
  1   -383.2235597466  -0.132146374769 0.02586141  0.00071705  0.1639756 0.7000
                               ***Turning on DIIS***
  2   -383.3084386403  -0.084878893777 0.01937517  0.00051658  0.1196396 0.7000
  3   -384.5046127820  -1.196174141707 0.04874968  0.00129508  0.0876827 0.0000
  4   -383.4445930844   1.060019697648 0.00566738  0.00018867  0.0072966 0.0000
  5   -383.4854413764  -0.040848292035 0.00292521  0.00008734  0.0023446 0.0000
  6   -383.4850880743   0.000353302157 0.00212349  0.00005618  0.0009540 0.0000
               *** Restarting incremental Fock matrix formation ***
                                   *** Resetting DIIS ***
  7   -383.4892671265  -0.004179052245 0.00479472  0.00012306  0.0004224 0.0000
  8   -383.4897641244  -0.000496997915 0.00064120  0.00001720  0.0002324 0.0000
  9   -383.4894277074   0.000336417027 0.00010069  0.00000288  0.0000894 0.0000
 10   -383.4891384180   0.000289289442 0.00007291  0.00000219  0.0000303 0.0000
 11   -383.4892586643  -0.000120246375 0.00001722  0.00000045  0.0000078 0.0000
 12   -383.4893001697  -0.000041505404 0.00000359  0.00000010  0.0000020 0.0000
                            ***DIIS convergence achieved***

               *****************************************************
               *                     SUCCESS                       *
               *           SCF CONVERGED AFTER  13 CYCLES          *
               *****************************************************

Old exchange energy                            =    -54.799276427 Eh
New exchange energy                            =    -54.799123958 Eh
Exchange energy change after final integration =      0.000152470 Eh
Total energy after final integration           =   -383.489116467 Eh
Final COS-X integration done in                =    33.732 sec

----------------
TOTAL SCF ENERGY
----------------

Total Energy       :         -383.48911647 Eh          -10435.26938 eV

Components:
Nuclear Repulsion  :          459.06018656 Eh           12491.66274 eV
Electronic Energy  :         -842.54930302 Eh          -22926.93212 eV
One Electron Energy:        -1427.86568219 Eh          -38854.20052 eV
Two Electron Energy:          585.31637916 Eh           15927.26840 eV
Max COSX asymmetry :            0.00000530 Eh               0.00014 eV
CPCM Dielectric    :           -0.00459625 Eh              -0.12507 eV

Virial components:
Potential Energy   :         -766.61168085 Eh          -20860.56437 eV
Kinetic Energy     :          383.12256438 Eh           10425.29499 eV
Virial Ratio       :            2.00095675

CPCM Solvation Model Properties:
Surface-charge          :           -0.02719676
Charge-correction       :            0.00002041 Eh               0.00056 eV
Free-energy (cav+disp)  :  This term is not implemented in the current solvation scheme

---------------
SCF CONVERGENCE
---------------

  Last Energy change         ...    3.1233e-05  Tolerance :   1.0000e-08
  Last MAX-Density change    ...    0.0000e+00  Tolerance :   1.0000e-07
  Last RMS-Density change    ...    0.0000e+00  Tolerance :   5.0000e-09
  Last DIIS Error            ...    4.6229e-07  Tolerance :   5.0000e-07

             **** THE GBW FILE WAS UPDATED (/scratch/dca0099.335131/Fluor_TZVP_naphtalene.gbw) ****
             **** DENSITY /scratch/dca0099.335131/Fluor_TZVP_naphtalene.scfp WAS UPDATED ****
             **** ENERGY FILE WAS UPDATED (/scratch/dca0099.335131/Fluor_TZVP_naphtalene.en.tmp) ****
             **** THE GBW FILE WAS UPDATED (/scratch/dca0099.335131/Fluor_TZVP_naphtalene.gbw) ****
             **** DENSITY /scratch/dca0099.335131/Fluor_TZVP_naphtalene.scfp WAS UPDATED ****
----------------
ORBITAL ENERGIES
----------------

  NO   OCC          E(Eh)            E(eV) 
   0   2.0000     -11.243097      -305.9402 
   1   2.0000     -11.242063      -305.9121 
   2   2.0000     -11.234814      -305.7148 
   3   2.0000     -11.234772      -305.7137 
   4   2.0000     -11.234524      -305.7069 
   5   2.0000     -11.234444      -305.7048 
   6   2.0000     -11.233426      -305.6771 
   7   2.0000     -11.233391      -305.6761 
   8   2.0000     -11.232644      -305.6558 
   9   2.0000     -11.232629      -305.6554 
  10   2.0000      -1.178687       -32.0737 
  11   2.0000      -1.111220       -30.2378 
  12   2.0000      -1.051843       -28.6221 
  13   2.0000      -1.009330       -27.4653 
  14   2.0000      -0.982020       -26.7221 
  15   2.0000      -0.854512       -23.2525 
  16   2.0000      -0.836967       -22.7750 
  17   2.0000      -0.811901       -22.0930 
  18   2.0000      -0.705946       -19.2098 
  19   2.0000      -0.699886       -19.0449 
  20   2.0000      -0.678521       -18.4635 
  21   2.0000      -0.622370       -16.9355 
  22   2.0000      -0.611969       -16.6525 
  23   2.0000      -0.585307       -15.9270 
  24   2.0000      -0.583023       -15.8649 
  25   2.0000      -0.563834       -15.3427 
  26   2.0000      -0.537260       -14.6196 
  27   2.0000      -0.523650       -14.2492 
  28   2.0000      -0.488866       -13.3027 
  29   2.0000      -0.476312       -12.9611 
  30   2.0000      -0.451417       -12.2837 
  31   2.0000      -0.388523       -10.5723 
  32   2.0000      -0.321641        -8.7523 
  33   2.0000      -0.291148        -7.9225 
  34   0.0000       0.081838         2.2269 
  35   0.0000       0.109202         2.9715 
  36   0.0000       0.154399         4.2014 
  37   0.0000       0.162718         4.4278 
  38   0.0000       0.170848         4.6490 
  39   0.0000       0.172210         4.6861 
  40   0.0000       0.196040         5.3345 
  41   0.0000       0.201075         5.4715 
  42   0.0000       0.208509         5.6738 
  43   0.0000       0.234631         6.3846 
  44   0.0000       0.239176         6.5083 
  45   0.0000       0.250622         6.8198 
  46   0.0000       0.257163         6.9978 
  47   0.0000       0.273944         7.4544 
  48   0.0000       0.285335         7.7643 
  49   0.0000       0.300509         8.1773 
  50   0.0000       0.308915         8.4060 
  51   0.0000       0.319815         8.7026 
  52   0.0000       0.322663         8.7801 
  53   0.0000       0.351624         9.5682 
  54   0.0000       0.351712         9.5706 
  55   0.0000       0.363273         9.8852 
  56   0.0000       0.371389        10.1060 
  57   0.0000       0.386819        10.5259 
  58   0.0000       0.402891        10.9632 
  59   0.0000       0.405977        11.0472 
  60   0.0000       0.411674        11.2022 
  61   0.0000       0.414339        11.2747 
  62   0.0000       0.447461        12.1760 
  63   0.0000       0.465823        12.6757 
  64   0.0000       0.467936        12.7332 
  65   0.0000       0.473874        12.8948 
  66   0.0000       0.481946        13.1144 
  67   0.0000       0.482508        13.1297 
  68   0.0000       0.490319        13.3422 
  69   0.0000       0.492880        13.4119 
  70   0.0000       0.499846        13.6015 
  71   0.0000       0.515054        14.0153 
  72   0.0000       0.524745        14.2790 
  73   0.0000       0.553555        15.0630 
  74   0.0000       0.554265        15.0823 
  75   0.0000       0.566435        15.4135 
  76   0.0000       0.568233        15.4624 
  77   0.0000       0.580123        15.7859 
  78   0.0000       0.595849        16.2139 
  79   0.0000       0.600621        16.3437 
  80   0.0000       0.604209        16.4414 
  81   0.0000       0.610405        16.6100 
  82   0.0000       0.615502        16.7487 
  83   0.0000       0.630188        17.1483 
  84   0.0000       0.641776        17.4636 
  85   0.0000       0.651306        17.7229 
  86   0.0000       0.657049        17.8792 
  87   0.0000       0.669955        18.2304 
  88   0.0000       0.683147        18.5894 
  89   0.0000       0.704805        19.1787 
  90   0.0000       0.713372        19.4118 
  91   0.0000       0.732520        19.9329 
  92   0.0000       0.746005        20.2998 
  93   0.0000       0.750233        20.4149 
  94   0.0000       0.805607        21.9217 
  95   0.0000       0.830907        22.6101 
  96   0.0000       0.842722        22.9316 
  97   0.0000       0.854452        23.2508 
  98   0.0000       0.862516        23.4703 
  99   0.0000       0.880060        23.9477 
 100   0.0000       0.883259        24.0347 
 101   0.0000       0.897520        24.4228 
 102   0.0000       0.916650        24.9433 
 103   0.0000       0.921811        25.0838 
 104   0.0000       0.927418        25.2363 
 105   0.0000       0.928270        25.2595 
 106   0.0000       0.936043        25.4710 
 107   0.0000       0.938021        25.5248 
 108   0.0000       0.980077        26.6693 
 109   0.0000       0.989713        26.9315 
 110   0.0000       1.013751        27.5856 
 111   0.0000       1.030307        28.0361 
 112   0.0000       1.038662        28.2634 
 113   0.0000       1.051527        28.6135 
 114   0.0000       1.058990        28.8166 
 115   0.0000       1.097638        29.8683 
 116   0.0000       1.101438        29.9717 
 117   0.0000       1.102651        30.0046 
 118   0.0000       1.116110        30.3709 
 119   0.0000       1.118199        30.4277 
 120   0.0000       1.167789        31.7772 
 121   0.0000       1.187971        32.3263 
 122   0.0000       1.200141        32.6575 
 123   0.0000       1.200588        32.6697 
 124   0.0000       1.206934        32.8423 
 125   0.0000       1.269985        34.5581 
 126   0.0000       1.294455        35.2239 
 127   0.0000       1.331689        36.2371 
 128   0.0000       1.353592        36.8331 
 129   0.0000       1.366692        37.1896 
 130   0.0000       1.379564        37.5398 
 131   0.0000       1.389209        37.8023 
 132   0.0000       1.412318        38.4311 
 133   0.0000       1.437442        39.1148 
 134   0.0000       1.440489        39.1977 
 135   0.0000       1.444710        39.3126 
 136   0.0000       1.452878        39.5348 
 137   0.0000       1.460811        39.7507 
 138   0.0000       1.467783        39.9404 
 139   0.0000       1.483374        40.3647 
 140   0.0000       1.485674        40.4272 
 141   0.0000       1.512255        41.1506 
 142   0.0000       1.512496        41.1571 
 143   0.0000       1.599913        43.5358 
 144   0.0000       1.606890        43.7257 
 145   0.0000       1.638441        44.5843 
 146   0.0000       1.645109        44.7657 
 147   0.0000       1.650247        44.9055 
 148   0.0000       1.652661        44.9712 
 149   0.0000       1.701852        46.3098 
 150   0.0000       1.733489        47.1706 
 151   0.0000       1.754557        47.7439 
 152   0.0000       1.758347        47.8470 
 153   0.0000       1.764623        48.0178 
 154   0.0000       1.766001        48.0553 
 155   0.0000       1.781550        48.4784 
 156   0.0000       1.795283        48.8521 
 157   0.0000       1.799599        48.9696 
 158   0.0000       1.829736        49.7897 
 159   0.0000       1.835471        49.9457 
 160   0.0000       1.845945        50.2307 
 161   0.0000       1.879560        51.1454 
 162   0.0000       1.900166        51.7062 
 163   0.0000       1.919702        52.2377 
 164   0.0000       1.960167        53.3389 
 165   0.0000       1.963229        53.4222 
 166   0.0000       1.976376        53.7799 
 167   0.0000       1.982130        53.9365 
 168   0.0000       1.989181        54.1284 
 169   0.0000       1.993096        54.2349 
 170   0.0000       1.999504        54.4093 
 171   0.0000       2.023580        55.0644 
 172   0.0000       2.030324        55.2479 
 173   0.0000       2.047260        55.7088 
 174   0.0000       2.128557        57.9210 
 175   0.0000       2.130899        57.9847 
 176   0.0000       2.144699        58.3602 
 177   0.0000       2.172125        59.1065 
 178   0.0000       2.197696        59.8023 
 179   0.0000       2.235667        60.8356 
 180   0.0000       2.250856        61.2489 
 181   0.0000       2.266569        61.6765 
 182   0.0000       2.289593        62.3030 
 183   0.0000       2.296211        62.4831 
 184   0.0000       2.304896        62.7194 
 185   0.0000       2.335082        63.5408 
 186   0.0000       2.394297        65.1521 
 187   0.0000       2.431482        66.1640 
 188   0.0000       2.442020        66.4507 
 189   0.0000       2.450746        66.6882 
 190   0.0000       2.485813        67.6424 
 191   0.0000       2.488404        67.7129 
 192   0.0000       2.508531        68.2606 
 193   0.0000       2.517890        68.5153 
 194   0.0000       2.561929        69.7136 
 195   0.0000       2.563302        69.7510 
 196   0.0000       2.575308        70.0777 
 197   0.0000       2.576542        70.1113 
 198   0.0000       2.615115        71.1609 
 199   0.0000       2.639140        71.8146 
 200   0.0000       2.693149        73.2843 
 201   0.0000       2.721141        74.0460 
 202   0.0000       2.751458        74.8710 
 203   0.0000       2.757866        75.0453 
 204   0.0000       2.767714        75.3133 
 205   0.0000       2.774083        75.4866 
 206   0.0000       2.873023        78.1789 
 207   0.0000       2.873142        78.1822 
 208   0.0000       2.889019        78.6142 
 209   0.0000       2.893012        78.7229 
 210   0.0000       2.897967        78.8577 
 211   0.0000       2.916898        79.3728 
 212   0.0000       2.931664        79.7746 
 213   0.0000       2.947115        80.1951 
 214   0.0000       2.963953        80.6533 
 215   0.0000       2.968695        80.7823 
 216   0.0000       2.972017        80.8727 
 217   0.0000       2.977602        81.0247 
 218   0.0000       3.017714        82.1162 
 219   0.0000       3.026238        82.3481 
 220   0.0000       3.052769        83.0701 
 221   0.0000       3.057714        83.2046 
 222   0.0000       3.067221        83.4633 
 223   0.0000       3.088601        84.0451 
 224   0.0000       3.092578        84.1533 
 225   0.0000       3.098435        84.3127 
 226   0.0000       3.107947        84.5715 
 227   0.0000       3.117088        84.8203 
 228   0.0000       3.123461        84.9937 
 229   0.0000       3.123677        84.9996 
 230   0.0000       3.139589        85.4326 
 231   0.0000       3.161209        86.0209 
 232   0.0000       3.194453        86.9255 
 233   0.0000       3.196818        86.9898 
 234   0.0000       3.205494        87.2259 
 235   0.0000       3.230956        87.9188 
 236   0.0000       3.231416        87.9313 
 237   0.0000       3.246341        88.3374 
 238   0.0000       3.262350        88.7731 
 239   0.0000       3.272254        89.0426 
 240   0.0000       3.287189        89.4490 
 241   0.0000       3.295377        89.6718 
 242   0.0000       3.325892        90.5021 
 243   0.0000       3.327833        90.5550 
 244   0.0000       3.332121        90.6716 
 245   0.0000       3.335333        90.7590 
 246   0.0000       3.361432        91.4692 
 247   0.0000       3.403288        92.6082 
 248   0.0000       3.427255        93.2603 
 249   0.0000       3.450352        93.8888 
 250   0.0000       3.458287        94.1048 
 251   0.0000       3.469378        94.4066 
 252   0.0000       3.479012        94.6687 
 253   0.0000       3.483441        94.7892 
 254   0.0000       3.511695        95.5581 
 255   0.0000       3.539734        96.3210 
 256   0.0000       3.539834        96.3238 
 257   0.0000       3.543918        96.4349 
 258   0.0000       3.558572        96.8337 
 259   0.0000       3.560116        96.8757 
 260   0.0000       3.579226        97.3957 
 261   0.0000       3.586781        97.6013 
 262   0.0000       3.588247        97.6412 
 263   0.0000       3.600721        97.9806 
 264   0.0000       3.646325        99.2215 
 265   0.0000       3.662110        99.6511 
 266   0.0000       3.662302        99.6563 
 267   0.0000       3.664292        99.7105 
 268   0.0000       3.683257       100.2265 
 269   0.0000       3.690378       100.4203 
 270   0.0000       3.711120       100.9847 
 271   0.0000       3.711798       101.0032 
 272   0.0000       3.741985       101.8246 
 273   0.0000       3.773743       102.6888 
 274   0.0000       3.781511       102.9002 
 275   0.0000       3.789249       103.1107 
 276   0.0000       3.808831       103.6436 
 277   0.0000       3.816721       103.8583 
 278   0.0000       3.823892       104.0534 
 279   0.0000       3.828893       104.1895 
 280   0.0000       3.853586       104.8614 
 281   0.0000       3.872514       105.3765 
 282   0.0000       3.904584       106.2491 
 283   0.0000       3.912271       106.4583 
 284   0.0000       3.931012       106.9683 
 285   0.0000       3.939211       107.1914 
 286   0.0000       3.953771       107.5876 
 287   0.0000       3.980106       108.3042 
 288   0.0000       4.008470       109.0760 
 289   0.0000       4.047278       110.1320 
 290   0.0000       4.049142       110.1827 
 291   0.0000       4.119825       112.1061 
 292   0.0000       4.175064       113.6093 
 293   0.0000       4.178271       113.6965 
 294   0.0000       4.194409       114.1357 
 295   0.0000       4.199551       114.2756 
 296   0.0000       4.221747       114.8796 
 297   0.0000       4.262436       115.9868 
 298   0.0000       4.293711       116.8378 
 299   0.0000       4.308295       117.2347 
 300   0.0000       4.330493       117.8387 
 301   0.0000       4.344800       118.2280 
 302   0.0000       4.385673       119.3402 
 303   0.0000       4.410641       120.0196 
 304   0.0000       4.438876       120.7879 
 305   0.0000       4.483135       121.9923 
 306   0.0000       4.501619       122.4953 
 307   0.0000       4.506800       122.6363 
 308   0.0000       4.518659       122.9590 
 309   0.0000       4.530624       123.2845 
 310   0.0000       4.534551       123.3914 
 311   0.0000       4.576816       124.5415 
 312   0.0000       4.611671       125.4900 
 313   0.0000       4.620564       125.7319 
 314   0.0000       4.635582       126.1406 
 315   0.0000       4.637275       126.1867 
 316   0.0000       4.650978       126.5595 
 317   0.0000       4.707131       128.0875 
 318   0.0000       4.720449       128.4500 
 319   0.0000       4.764801       129.6568 
 320   0.0000       4.814577       131.0113 
 321   0.0000       4.827656       131.3672 
 322   0.0000       4.875491       132.6689 
 323   0.0000       4.890609       133.0802 
 324   0.0000       4.925654       134.0339 
 325   0.0000       5.023420       136.6942 
 326   0.0000       5.090582       138.5218 
 327   0.0000       5.110314       139.0587 
 328   0.0000       5.113452       139.1441 
 329   0.0000       5.130259       139.6014 
 330   0.0000       5.155820       140.2970 
 331   0.0000       5.171858       140.7334 
 332   0.0000       5.214100       141.8829 
 333   0.0000       5.275133       143.5437 
 334   0.0000       5.347291       145.5072 
 335   0.0000       5.442817       148.1066 
 336   0.0000       5.452583       148.3723 
 337   0.0000       5.477793       149.0583 
 338   0.0000       5.489121       149.3666 
 339   0.0000       5.587916       152.0549 
 340   0.0000       5.626658       153.1091 
 341   0.0000       5.757117       156.6591 
 342   0.0000       5.763665       156.8373 
 343   0.0000       5.805979       157.9887 
 344   0.0000       5.985787       162.8815 
 345   0.0000       6.005120       163.4076 
 346   0.0000       6.064538       165.0245 
 347   0.0000       6.341466       172.5601 
 348   0.0000      22.931534       623.9988 
 349   0.0000      23.660011       643.8216 
 350   0.0000      23.730934       645.7515 
 351   0.0000      23.751965       646.3238 
 352   0.0000      23.799795       647.6253 
 353   0.0000      23.829994       648.4471 
 354   0.0000      23.957579       651.9189 
 355   0.0000      24.051904       654.4856 
 356   0.0000      24.152684       657.2279 
 357   0.0000      24.710848       672.4164 

                    ********************************
                    * MULLIKEN POPULATION ANALYSIS *
                    ********************************

-----------------------
MULLIKEN ATOMIC CHARGES
-----------------------
   0 C :   -0.123096
   1 C :   -0.253490
   2 C :    0.181284
   3 C :    0.181562
   4 C :   -0.246942
   5 C :   -0.129897
   6 H :    0.143027
   7 H :    0.144459
   8 H :    0.141646
   9 C :   -0.246592
  10 C :   -0.253417
  11 H :    0.142945
  12 H :    0.142951
  13 C :   -0.123377
  14 C :   -0.130015
  15 H :    0.141622
  16 H :    0.144380
  17 H :    0.142949
Sum of atomic charges:    0.0000000

--------------------------------
MULLIKEN REDUCED ORBITAL CHARGES
--------------------------------
  0 C s       :     3.120872  s :     3.120872
      pz      :     0.964770  p :     2.893244
      px      :     0.959082
      py      :     0.969392
      dz2     :     0.005089  d :     0.100327
      dxz     :     0.021099
      dyz     :     0.010331
      dx2y2   :     0.031241
      dxy     :     0.032566
      f0      :     0.001618  f :     0.008653
      f+1     :     0.000870
      f-1     :     0.000921
      f+2     :     0.000991
      f-2     :     0.000413
      f+3     :     0.001876
      f-3     :     0.001964
  1 C s       :     3.206577  s :     3.206577
      pz      :     0.970305  p :     2.932637
      px      :     0.990733
      py      :     0.971600
      dz2     :     0.004415  d :     0.105643
      dxz     :     0.022976
      dyz     :     0.009614
      dx2y2   :     0.033175
      dxy     :     0.035464
      f0      :     0.001582  f :     0.008633
      f+1     :     0.000909
      f-1     :     0.000871
      f+2     :     0.000846
      f-2     :     0.000475
      f+3     :     0.001871
      f-3     :     0.002078
  2 C s       :     3.112709  s :     3.112709
      pz      :     0.922657  p :     2.541934
      px      :     0.810740
      py      :     0.808537
      dz2     :     0.005523  d :     0.152534
      dxz     :     0.025126
      dyz     :     0.021953
      dx2y2   :     0.046942
      dxy     :     0.052990
      f0      :     0.001954  f :     0.011539
      f+1     :     0.001096
      f-1     :     0.001046
      f+2     :     0.000903
      f-2     :     0.001026
      f+3     :     0.002217
      f-3     :     0.003296
  3 C s       :     3.113105  s :     3.113105
      pz      :     0.922656  p :     2.541399
      px      :     0.810452
      py      :     0.808291
      dz2     :     0.005537  d :     0.152394
      dxz     :     0.025123
      dyz     :     0.021955
      dx2y2   :     0.046834
      dxy     :     0.052946
      f0      :     0.001954  f :     0.011540
      f+1     :     0.001096
      f-1     :     0.001046
      f+2     :     0.000903
      f-2     :     0.001026
      f+3     :     0.002216
      f-3     :     0.003298
  4 C s       :     3.199905  s :     3.199905
      pz      :     0.970466  p :     2.932572
      px      :     0.934745
      py      :     1.027361
      dz2     :     0.004462  d :     0.105826
      dxz     :     0.019747
      dyz     :     0.012876
      dx2y2   :     0.036571
      dxy     :     0.032170
      f0      :     0.001584  f :     0.008639
      f+1     :     0.000890
      f-1     :     0.000889
      f+2     :     0.000863
      f-2     :     0.000459
      f+3     :     0.001884
      f-3     :     0.002071
  5 C s       :     3.127878  s :     3.127878
      pz      :     0.964380  p :     2.892963
      px      :     0.987286
      py      :     0.941297
      dz2     :     0.005125  d :     0.100407
      dxz     :     0.006543
      dyz     :     0.024832
      dx2y2   :     0.030260
      dxy     :     0.033648
      f0      :     0.001611  f :     0.008648
      f+1     :     0.000881
      f-1     :     0.000910
      f+2     :     0.000237
      f-2     :     0.001162
      f+3     :     0.001887
      f-3     :     0.001960
  6 H s       :     0.833658  s :     0.833658
      pz      :     0.004135  p :     0.023315
      px      :     0.006489
      py      :     0.012691
  7 H s       :     0.832098  s :     0.832098
      pz      :     0.004170  p :     0.023442
      px      :     0.006319
      py      :     0.012954
  8 H s       :     0.835000  s :     0.835000
      pz      :     0.004133  p :     0.023354
      px      :     0.006299
      py      :     0.012922
  9 C s       :     3.199322  s :     3.199322
      pz      :     0.970463  p :     2.932755
      px      :     0.935057
      py      :     1.027234
      dz2     :     0.004461  d :     0.105878
      dxz     :     0.019745
      dyz     :     0.012876
      dx2y2   :     0.036625
      dxy     :     0.032171
      f0      :     0.001584  f :     0.008637
      f+1     :     0.000890
      f-1     :     0.000889
      f+2     :     0.000863
      f-2     :     0.000459
      f+3     :     0.001883
      f-3     :     0.002070
 10 C s       :     3.206381  s :     3.206381
      pz      :     0.970298  p :     2.932687
      px      :     0.990614
      py      :     0.971775
      dz2     :     0.004408  d :     0.105716
      dxz     :     0.022977
      dyz     :     0.009614
      dx2y2   :     0.033211
      dxy     :     0.035507
      f0      :     0.001582  f :     0.008632
      f+1     :     0.000909
      f-1     :     0.000871
      f+2     :     0.000846
      f-2     :     0.000475
      f+3     :     0.001871
      f-3     :     0.002077
 11 H s       :     0.833741  s :     0.833741
      pz      :     0.004135  p :     0.023314
      px      :     0.006489
      py      :     0.012690
 12 H s       :     0.833612  s :     0.833612
      pz      :     0.004170  p :     0.023436
      px      :     0.016149
      py      :     0.003117
 13 C s       :     3.121408  s :     3.121408
      pz      :     0.964767  p :     2.892978
      px      :     0.959049
      py      :     0.969161
      dz2     :     0.005090  d :     0.100339
      dxz     :     0.021099
      dyz     :     0.010333
      dx2y2   :     0.031237
      dxy     :     0.032579
      f0      :     0.001618  f :     0.008653
      f+1     :     0.000870
      f-1     :     0.000921
      f+2     :     0.000991
      f-2     :     0.000413
      f+3     :     0.001875
      f-3     :     0.001964
 14 C s       :     3.128383  s :     3.128383
      pz      :     0.964377  p :     2.892591
      px      :     0.986986
      py      :     0.941227
      dz2     :     0.005134  d :     0.100392
      dxz     :     0.006544
      dyz     :     0.024833
      dx2y2   :     0.030253
      dxy     :     0.033628
      f0      :     0.001611  f :     0.008649
      f+1     :     0.000881
      f-1     :     0.000910
      f+2     :     0.000237
      f-2     :     0.001162
      f+3     :     0.001888
      f-3     :     0.001961
 15 H s       :     0.835023  s :     0.835023
      pz      :     0.004133  p :     0.023355
      px      :     0.006298
      py      :     0.012924
 16 H s       :     0.832178  s :     0.832178
      pz      :     0.004169  p :     0.023443
      px      :     0.006320
      py      :     0.012953
 17 H s       :     0.833613  s :     0.833613
      pz      :     0.004170  p :     0.023438
      px      :     0.016151
      py      :     0.003117


                     *******************************
                     * LOEWDIN POPULATION ANALYSIS *
                     *******************************

----------------------
LOEWDIN ATOMIC CHARGES
----------------------
   0 C :   -0.141026
   1 C :   -0.102039
   2 C :   -0.095138
   3 C :   -0.095131
   4 C :   -0.102104
   5 C :   -0.140972
   6 H :    0.147203
   7 H :    0.143464
   8 H :    0.147200
   9 C :   -0.102100
  10 C :   -0.102038
  11 H :    0.147203
  12 H :    0.143401
  13 C :   -0.141028
  14 C :   -0.140964
  15 H :    0.147200
  16 H :    0.143466
  17 H :    0.143401

-------------------------------
LOEWDIN REDUCED ORBITAL CHARGES
-------------------------------
  0 C s       :     2.759301  s :     2.759301
      pz      :     0.882417  p :     2.940612
      px      :     1.057480
      py      :     1.000716
      dz2     :     0.026181  d :     0.398511
      dxz     :     0.064356
      dyz     :     0.032276
      dx2y2   :     0.118324
      dxy     :     0.157375
      f0      :     0.002949  f :     0.042601
      f+1     :     0.003920
      f-1     :     0.003238
      f+2     :     0.006088
      f-2     :     0.002680
      f+3     :     0.008378
      f-3     :     0.015350
  1 C s       :     2.751842  s :     2.751842
      pz      :     0.879537  p :     2.914207
      px      :     1.048441
      py      :     0.986230
      dz2     :     0.026178  d :     0.394177
      dxz     :     0.066509
      dyz     :     0.028887
      dx2y2   :     0.115765
      dxy     :     0.156838
      f0      :     0.002928  f :     0.041812
      f+1     :     0.003825
      f-1     :     0.003236
      f+2     :     0.005449
      f-2     :     0.002824
      f+3     :     0.008416
      f-3     :     0.015134
  2 C s       :     2.685191  s :     2.685191
      pz      :     0.830229  p :     2.829668
      px      :     0.999909
      py      :     0.999530
      dz2     :     0.034506  d :     0.523163
      dxz     :     0.076910
      dyz     :     0.070665
      dx2y2   :     0.171817
      dxy     :     0.169265
      f0      :     0.003733  f :     0.057116
      f+1     :     0.003979
      f-1     :     0.003948
      f+2     :     0.006298
      f-2     :     0.006800
      f+3     :     0.009809
      f-3     :     0.022550
  3 C s       :     2.685191  s :     2.685191
      pz      :     0.830228  p :     2.829665
      px      :     0.999902
      py      :     0.999534
      dz2     :     0.034506  d :     0.523159
      dxz     :     0.076907
      dyz     :     0.070667
      dx2y2   :     0.171818
      dxy     :     0.169260
      f0      :     0.003733  f :     0.057116
      f+1     :     0.003979
      f-1     :     0.003948
      f+2     :     0.006298
      f-2     :     0.006799
      f+3     :     0.009809
      f-3     :     0.022550
  4 C s       :     2.751832  s :     2.751832
      pz      :     0.879592  p :     2.914262
      px      :     1.015761
      py      :     1.018908
      dz2     :     0.026184  d :     0.394200
      dxz     :     0.063456
      dyz     :     0.031955
      dx2y2   :     0.124660
      dxy     :     0.147945
      f0      :     0.002928  f :     0.041810
      f+1     :     0.003723
      f-1     :     0.003337
      f+2     :     0.005671
      f-2     :     0.002600
      f+3     :     0.008449
      f-3     :     0.015101
  5 C s       :     2.759327  s :     2.759327
      pz      :     0.882339  p :     2.940521
      px      :     0.989738
      py      :     1.068444
      dz2     :     0.026182  d :     0.398527
      dxz     :     0.013537
      dyz     :     0.083103
      dx2y2   :     0.169680
      dxy     :     0.106024
      f0      :     0.002948  f :     0.042597
      f+1     :     0.003025
      f-1     :     0.004135
      f+2     :     0.001282
      f-2     :     0.007483
      f+3     :     0.008377
      f-3     :     0.015347
  6 H s       :     0.793644  s :     0.793644
      pz      :     0.012959  p :     0.059153
      px      :     0.016692
      py      :     0.029502
  7 H s       :     0.797381  s :     0.797381
      pz      :     0.012830  p :     0.059155
      px      :     0.016211
      py      :     0.030113
  8 H s       :     0.793640  s :     0.793640
      pz      :     0.012960  p :     0.059160
      px      :     0.016279
      py      :     0.029921
  9 C s       :     2.751832  s :     2.751832
      pz      :     0.879591  p :     2.914263
      px      :     1.015765
      py      :     1.018907
      dz2     :     0.026183  d :     0.394194
      dxz     :     0.063454
      dyz     :     0.031955
      dx2y2   :     0.124658
      dxy     :     0.147944
      f0      :     0.002928  f :     0.041810
      f+1     :     0.003723
      f-1     :     0.003338
      f+2     :     0.005672
      f-2     :     0.002600
      f+3     :     0.008449
      f-3     :     0.015101
 10 C s       :     2.751841  s :     2.751841
      pz      :     0.879532  p :     2.914206
      px      :     1.048442
      py      :     0.986232
      dz2     :     0.026177  d :     0.394178
      dxz     :     0.066507
      dyz     :     0.028888
      dx2y2   :     0.115766
      dxy     :     0.156839
      f0      :     0.002928  f :     0.041813
      f+1     :     0.003825
      f-1     :     0.003236
      f+2     :     0.005449
      f-2     :     0.002824
      f+3     :     0.008416
      f-3     :     0.015135
 11 H s       :     0.793645  s :     0.793645
      pz      :     0.012959  p :     0.059152
      px      :     0.016692
      py      :     0.029501
 12 H s       :     0.797451  s :     0.797451
      pz      :     0.012829  p :     0.059148
      px      :     0.036544
      py      :     0.009776
 13 C s       :     2.759299  s :     2.759299
      pz      :     0.882415  p :     2.940612
      px      :     1.057480
      py      :     1.000717
      dz2     :     0.026181  d :     0.398515
      dxz     :     0.064357
      dyz     :     0.032276
      dx2y2   :     0.118324
      dxy     :     0.157377
      f0      :     0.002949  f :     0.042602
      f+1     :     0.003920
      f-1     :     0.003238
      f+2     :     0.006088
      f-2     :     0.002680
      f+3     :     0.008378
      f-3     :     0.015350
 14 C s       :     2.759329  s :     2.759329
      pz      :     0.882338  p :     2.940514
      px      :     0.989734
      py      :     1.068442
      dz2     :     0.026183  d :     0.398525
      dxz     :     0.013537
      dyz     :     0.083104
      dx2y2   :     0.169679
      dxy     :     0.106023
      f0      :     0.002948  f :     0.042596
      f+1     :     0.003025
      f-1     :     0.004135
      f+2     :     0.001282
      f-2     :     0.007483
      f+3     :     0.008377
      f-3     :     0.015347
 15 H s       :     0.793640  s :     0.793640
      pz      :     0.012960  p :     0.059160
      px      :     0.016279
      py      :     0.029921
 16 H s       :     0.797380  s :     0.797380
      pz      :     0.012830  p :     0.059154
      px      :     0.016211
      py      :     0.030113
 17 H s       :     0.797451  s :     0.797451
      pz      :     0.012829  p :     0.059148
      px      :     0.036543
      py      :     0.009776


                      *****************************
                      * MAYER POPULATION ANALYSIS *
                      *****************************

  NA   - Mulliken gross atomic population
  ZA   - Total nuclear charge
  QA   - Mulliken gross atomic charge
  VA   - Mayer's total valence
  BVA  - Mayer's bonded valence
  FA   - Mayer's free valence

  ATOM       NA         ZA         QA         VA         BVA        FA
  0 C      6.1231     6.0000    -0.1231     3.8888     3.8888     0.0000
  1 C      6.2535     6.0000    -0.2535     3.9066     3.9066     0.0000
  2 C      5.8187     6.0000     0.1813     3.7700     3.7700     0.0000
  3 C      5.8184     6.0000     0.1816     3.7696     3.7696     0.0000
  4 C      6.2469     6.0000    -0.2469     3.9002     3.9002     0.0000
  5 C      6.1299     6.0000    -0.1299     3.8960     3.8960    -0.0000
  6 H      0.8570     1.0000     0.1430     0.9690     0.9690    -0.0000
  7 H      0.8555     1.0000     0.1445     0.9663     0.9663     0.0000
  8 H      0.8584     1.0000     0.1416     0.9696     0.9696     0.0000
  9 C      6.2466     6.0000    -0.2466     3.9007     3.9007     0.0000
 10 C      6.2534     6.0000    -0.2534     3.9066     3.9066    -0.0000
 11 H      0.8571     1.0000     0.1429     0.9690     0.9690     0.0000
 12 H      0.8570     1.0000     0.1430     0.9675     0.9675    -0.0000
 13 C      6.1234     6.0000    -0.1234     3.8881     3.8881    -0.0000
 14 C      6.1300     6.0000    -0.1300     3.8953     3.8953     0.0000
 15 H      0.8584     1.0000     0.1416     0.9696     0.9696    -0.0000
 16 H      0.8556     1.0000     0.1444     0.9663     0.9663    -0.0000
 17 H      0.8571     1.0000     0.1429     0.9675     0.9675     0.0000

  Mayer bond orders larger than 0.100000
B(  0-C ,  1-C ) :   1.5926 B(  0-C ,  5-C ) :   1.2323 B(  0-C ,  7-H ) :   0.9847 
B(  1-C ,  2-C ) :   1.2433 B(  1-C ,  8-H ) :   0.9876 B(  2-C ,  3-C ) :   1.3347 
B(  2-C ,  9-C ) :   1.2444 B(  3-C ,  4-C ) :   1.2433 B(  3-C , 10-C ) :   1.2440 
B(  4-C ,  5-C ) :   1.5937 B(  4-C , 11-H ) :   0.9852 B(  5-C , 12-H ) :   0.9858 
B(  6-H ,  9-C ) :   0.9849 B(  9-C , 14-C ) :   1.5934 B( 10-C , 13-C ) :   1.5922 
B( 10-C , 15-H ) :   0.9875 B( 13-C , 14-C ) :   1.2318 B( 13-C , 16-H ) :   0.9849 
B( 14-C , 17-H ) :   0.9859 

-------
TIMINGS
-------

Total SCF time: 0 days 0 hours 3 min 41 sec 

Total time                  ....     221.292 sec
Sum of individual times     ....     220.636 sec  ( 99.7%)

Fock matrix formation       ....     215.968 sec  ( 97.6%)
  Split-RI-J                ....      15.317 sec  (  7.1% of F)
  Chain of spheres X        ....     181.673 sec  ( 84.1% of F)
Diagonalization             ....       0.326 sec  (  0.1%)
Density matrix formation    ....       0.018 sec  (  0.0%)
Population analysis         ....       0.015 sec  (  0.0%)
Initial guess               ....       1.382 sec  (  0.6%)
Orbital Transformation      ....       0.000 sec  (  0.0%)
Orbital Orthonormalization  ....       0.000 sec  (  0.0%)
DIIS solution               ....       0.115 sec  (  0.1%)

Maximum memory used throughout the entire SCF-calculation: 216.0 MB


--------------------------------------------------------------------------------
                             ORCA-MATRIX DRIVEN CI
--------------------------------------------------------------------------------


Wavefunction type
-----------------
Correlation treatment                      ...      CCSD     
Single excitations                         ... ON
Orbital optimization                       ... OFF
Calculation of Z vector                    ... OFF
Calculation of Brueckner orbitals          ... OFF
Perturbative triple excitations            ... OFF
Calculation of F12 correction              ... OFF
Frozen core treatment                      ... chemical core (20 el)
Reference Wavefunction                     ... RHF
  Internal Orbitals:    10 ...   33 ( 24 MO's/ 48 electrons)
  Virtual  Orbitals:    34 ...  357 (324 MO's              )
Number of AO's                             ...    358
Number of electrons                        ...     68
Number of correlated electrons             ...     48

Algorithmic settings
--------------------
Integral transformation                    ... All integrals via the RI transformation
K(C) Formation                             ... RI-DLPNO
   PNO-Integral Storage                    ... ON DISK
   PNO occupation number cut-off           ... 3.330e-07
   Singles PNO occupation number cut-off   ... 9.990e-09
   PNO Mulliken prescreening cut-off       ... 1.000e-03
   Domain cut-off (Mulliken population)    ... 1.000e-03
   PNO Normalization                       ...    1
Maximum number of iterations               ...       100
Convergence tolerance (max. residuum)      ... 1.000e-05
Level shift for amplitude update           ... 2.000e-01
Maximum number of DIIS vectors             ...         7
DIIS turned on at iteration                ...         0
Damping before turning on DIIS             ...     0.500
Damping after turning on DIIS              ...     0.000
Pair specific amplitude update             ... OFF
Natural orbital iterations                 ... OFF
Perturbative natural orbital generation    ... OFF
Printlevel                                 ... 2

Singles Fock matrix elements calculated using PNOs.

Memory handling:
----------------
Maximum memory for working arrays          ... 120000 MB
Data storage in matrix containers          ... UNCOMPRESSED
Data type for integral storage             ... DOUBLE
In-Core Storage of quantities:
   Amplitudes+Sigma Vector      ... NO
   J+K operators                ... NO
   DIIS vectors                 ... NO
   3-external integrals         ... NO
   4-external integrals         ... NO

Localization treatment:
-----------------------
Localization option                        ...    6
Localization threshhold                    ... -1.0e+00
Using relative localization threshhold     ... 1.0e-08
Neglect threshold for strong pairs         ... 1.000e-04 Eh
Prescreening threshold for very weak pairs ... 1.000e-06 Eh

Initializing the integral package          ... done
Localizing the valence orbitals
------------------------------------------------------------------------------
                           ORCA ORBITAL LOCALIZATION
------------------------------------------------------------------------------

Input orbitals are from                  ... /scratch/dca0099.335131/Fluor_TZVP_naphtalene.gbw
Output orbitals are to                   ... /scratch/dca0099.335131/Fluor_TZVP_naphtalene.loc
Max. number of iterations                ... 128
Localizations seeded randomly            ... off
Convergence tolerance                    ... 1.000e-06
Using relative localization threshhold   ... 1.000e-08
Treshold for strong local MOs            ... 9.500e-01
Treshold for bond MOs                    ... 8.500e-01
Operator                                 ... 0
Orbital range for localization           ... 10 to 33
Localization criterion                   ... FOSTER-BOYS (AUGMENTED HESSIAN)
Doing the dipole integrals     ... o.k.
Initial value of the localization sum :   361.682903
ITERATION   0 : L=  409.9847171832 DL=  4.83e+01 (AVERGE_DL)=    0.4183378689 
ITERATION   1 : L=  421.0185657105 DL=  1.10e+01 (AVERGE_DL)=    0.1999442724 
ITERATION   2 : L=  421.4760142160 DL=  4.57e-01 (AVERGE_DL)=    0.0407114495 
ITERATION   3 : L=  421.4999691608 DL=  2.40e-02 (AVERGE_DL)=    0.0093162910 
ITERATION   4 : L=  421.5017534823 DL=  1.78e-03 (AVERGE_DL)=    0.0025426233 
ITERATION   5 : L=  421.5018752488 DL=  1.22e-04 (AVERGE_DL)=    0.0006642160 
ITERATION   6 : L=  421.5018833222 DL=  8.07e-06 (AVERGE_DL)=    0.0001710309 
ITERATION   7 : L=  421.5018838497 DL=  5.27e-07 (AVERGE_DL)=    0.0000437152 
LOCALIZATION SUM CONVERGED

------------------------------------------------------
AUGMENTED HESSIAN OPTIMIZATION OF FOSTER-BOYS ORBITALS
------------------------------------------------------

Spin operator:           0
Orbital window:          10 to 33
Number of iterations:    128
Gradient tolerance:      1.000e-06
Number of pairs:         276
Davidson threshold:      2000
Diagonalization method:  LAPACK
Iter:    0   L: 421.5018838497   Grad. norm: 2.783784e-03
   *** Likely close to a maximum now. ***
       Augmented Hessian eigenvalues:  9.58e-08 -3.78e+00 -4.03e+00 -4.10e+00 ... 
Iter:    1   L: 421.5018838976   Grad. norm: 2.746367e-08
LOCALIZATION HAS CONVERGED.

Eigenvalues of the Hessian:
  0 -3.778e+00
  1 -4.030e+00
  2 -4.096e+00
  3 -4.223e+00
  4 -4.224e+00
  5 -1.314e+01
  6 -1.369e+01
  7 -1.396e+01
  8 -1.416e+01
  9 -1.477e+01
    ...


--------------------------------------------------------------------------------
                    LOCALIZED MOLECULAR ORBITAL COMPOSITIONS
--------------------------------------------------------------------------------

The Mulliken populations for each LMO on each atom are computed
The LMO`s will be ordered according to atom index and type
  (A) Strongly localized MO`s have populations of >=0.950 on one atom
  (B) Two center bond orbitals have populations of >=0.850 on two atoms
  (C) Other MO`s are considered to be `delocalized`

FOUND  -   0 strongly local MO`s
       -  24 two center bond MO`s
       -   0 significantly delocalized MO`s

Bond-like localized orbitals:
MO  33:  17H  -   0.439563  and  14C  -   0.591916
MO  32:  16H  -   0.439099  and  13C  -   0.592048
MO  31:  15H  -   0.438988  and  10C  -   0.592177
MO  30:  14C  -   0.505336  and  13C  -   0.504278
MO  29:  14C  -   0.478470  and   9C  -   0.478866
MO  28:  14C  -   0.478520  and   9C  -   0.478806
MO  27:  13C  -   0.478261  and  10C  -   0.479119
MO  26:  13C  -   0.478216  and  10C  -   0.479129
MO  25:  12H  -   0.439566  and   5C  -   0.591808
MO  24:  11H  -   0.438423  and   4C  -   0.591351
MO  23:  10C  -   0.568865  and   3C  -   0.487399
MO  22:   9C  -   0.591233  and   6H  -   0.438373
MO  21:   9C  -   0.569203  and   2C  -   0.487418
MO  20:   8H  -   0.438980  and   1C  -   0.592272
MO  19:   7H  -   0.439060  and   0C  -   0.591966
MO  18:   5C  -   0.478447  and   4C  -   0.478971
MO  17:   5C  -   0.478465  and   4C  -   0.478961
MO  16:   5C  -   0.505304  and   0C  -   0.504289
MO  15:   4C  -   0.569095  and   3C  -   0.487450
MO  14:   3C  -   0.454717  and   2C  -   0.454647
MO  13:   3C  -   0.454694  and   2C  -   0.454663
MO  12:   2C  -   0.487623  and   1C  -   0.568542
MO  11:   1C  -   0.479219  and   0C  -   0.478129
MO  10:   1C  -   0.479273  and   0C  -   0.478103
Localized MO's were stored in: /scratch/dca0099.335131/Fluor_TZVP_naphtalene.loc

Localizing the core orbitals
------------------------------------------------------------------------------
                           ORCA ORBITAL LOCALIZATION
------------------------------------------------------------------------------

Input orbitals are from                  ... /scratch/dca0099.335131/Fluor_TZVP_naphtalene.loc
Output orbitals are to                   ... /scratch/dca0099.335131/Fluor_TZVP_naphtalene.loc
Max. number of iterations                ... 128
Localizations seeded randomly            ... off
Convergence tolerance                    ... 1.000e-06
Using relative localization threshhold   ... 1.000e-08
Treshold for strong local MOs            ... 9.500e-01
Treshold for bond MOs                    ... 8.500e-01
Operator                                 ... 0
Orbital range for localization           ... 0 to 9
Localization criterion                   ... FOSTER-BOYS (AUGMENTED HESSIAN)
Doing the dipole integrals     ... o.k.
Initial value of the localization sum :   144.431842
ITERATION   0 : L=  144.4318470530 DL=  5.55e-06 (AVERGE_DL)=    0.0003512775 
ITERATION   1 : L=  144.4318470530 DL=  0.00e+00 (AVERGE_DL)=    0.0000000000 
LOCALIZATION SUM CONVERGED

------------------------------------------------------
AUGMENTED HESSIAN OPTIMIZATION OF FOSTER-BOYS ORBITALS
------------------------------------------------------

Spin operator:           0
Orbital window:          0 to 9
Number of iterations:    128
Gradient tolerance:      1.000e-06
Number of pairs:         45
[...]
Convergence check                          ... for each root separately
Convergence threshold                      ... 1.00E-05
Root homing                                ... on
Preconditioning update                     ... CIS
Reduced space size (times number of roots) ... 40
Number of roots in the CIS initial guess   ... 200
Number of roots to be optimized            ... 5
Number of amplitudes to be optimized       ... 7776

--------------------------------
AUTOMATIC CHOICE OF INCORE LEVEL
--------------------------------

Memory available                           ... 120000.00 MB
Memory needed for SIP and SEA amplitudes   ...    324.63 MB
 -> Final InCoreLevel    ... 1


Making SIP amplitudes for STEOM-CCSD       ... done (    2.3)
Making SEA amplitudes for STEOM-CCSD       ... done (    4.4)
Dressing integrals for STEOM-CCSD          ... 
Dressing of Occ / Occ block ... done (    0.2)
Dressing of Virt / Virt block ... done (    0.1)

---------------------
CHAIN OF SPHERES GRID
---------------------

General Integration Accuracy     IntAcc      ... 4.020
Radial Grid Type                 RadialGrid  ... OptM3 with GC (2021)
Angular Grid (max. ang.)         AngularGrid ... 2 (Lebedev-110)
Angular grid pruning method      GridPruning ... 4 (adaptive)
Weight generation scheme         WeightScheme... Becke
Basis function cutoff            BFCut       ... 1.0000e-11
Integration weight cutoff        WCut        ... 1.0000e-14
Angular grids for H and He will be reduced by one unit
Partially contracted basis set               ... on
Rotationally invariant grid construction     ... off

Total number of grid points                  ...    23850
Total number of batches                      ...      384
Average number of points per batch           ...       62
Average number of grid points per atom       ...     1325
UseSFitting                                  ... on

done ( 6237.9)
done ( 1212.0)
Building the initial guess                 ... done (    0.0)
Solving Root No   1 

Iter    Delta-E          Residual              Time
---------------------------------------------------
  0   0.151157844193   0.004740980336         0.320
  1   0.000027320050   0.000105900440         0.319
  2   0.000133269235   0.000006939780         0.319

      *** CONVERGENCE OF RESIDUAL NORM REACHED ***
       --- The STEOM iterations have converged ---
Solving Root No   2 

Iter    Delta-E          Residual              Time
---------------------------------------------------
  0   0.193615468638   0.008084859728         0.319
  1   0.008203388092   0.000862205033         0.318
  2   0.001728369161   0.000441448331         0.319
  3   0.001316461515   0.000080851785         0.319
  4   0.000255740962   0.000009495100         0.319

      *** CONVERGENCE OF RESIDUAL NORM REACHED ***
       --- The STEOM iterations have converged ---
Solving Root No   3 

Iter    Delta-E          Residual              Time
---------------------------------------------------
  0   0.244202998824   0.006319257874         0.319
  1   0.004483120440   0.000497070062         0.319
  2   0.000041802383   0.000321473634         0.318
  3   0.002099765939   0.000548483954         0.319
  4   0.002477152438   0.000408853783         0.319
  5   0.000622292051   0.000232280327         0.319
  6   0.010174965889   0.002606558618         0.319
  7   0.009784524187   0.000146644845         0.319
  8   0.000446434490   0.000036655873         0.319
  9   0.000032675584   0.000021223515         0.319
 10   0.000947868839   0.000526052790         0.319
 11   0.001058114346   0.000007673367         0.319

      *** CONVERGENCE OF RESIDUAL NORM REACHED ***
       --- The STEOM iterations have converged ---
Solving Root No   4 

Iter    Delta-E          Residual              Time
---------------------------------------------------
  0   0.233735992382   0.007416929135         0.320
  1   0.004851444173   0.000536276482         0.318
  2   0.000176145779   0.000059206238         0.319
  3   0.000066033039   0.000012176084         0.319
  4   0.000113618040   0.000003501770         0.318

      *** CONVERGENCE OF RESIDUAL NORM REACHED ***
       --- The STEOM iterations have converged ---
Solving Root No   5 

Iter    Delta-E          Residual              Time
---------------------------------------------------
  0   0.243920832046   0.012876971648         0.319
  1   0.012135960275   0.003469200334         0.319
  2   0.025069815105   0.025924301263         0.319
  3   0.015387495726   0.000612327789         0.319
  4   0.000890328551   0.000107881915         0.319
  5   0.000358621903   0.000031250298         0.319
  6   0.000151903200   0.000008572411         0.319

      *** CONVERGENCE OF RESIDUAL NORM REACHED ***
       --- The STEOM iterations have converged ---

------------------
STEOM-CCSD RESULTS
------------------

IROOT=  1:  0.151264 au     4.116 eV   33198.6 cm**-1
  Amplitude    Excitation
  -0.693348    32 ->  34
  -0.698864    33 ->  35
  Ground state amplitude:  0.000163

Percentage Active Character     98.98

  Amplitude    Excitation in Canonical Basis
   0.691671    32 ->  34
  -0.695298    33 ->  35

IROOT=  2:  0.182112 au     4.956 eV   39968.9 cm**-1
  Amplitude    Excitation
  -0.253194    32 ->  35
   0.957041    33 ->  34
  Ground state amplitude:  0.000790

Percentage Active Character     98.94

  Amplitude    Excitation in Canonical Basis
   0.252097    32 ->  35
   0.955364    33 ->  34

IROOT=  3:  0.228529 au     6.219 eV   50156.3 cm**-1
  Amplitude    Excitation
   0.697492    32 ->  34
  -0.676068    33 ->  35
  Ground state amplitude:  0.001495

Percentage Active Character     98.29

  Amplitude    Excitation in Canonical Basis
  -0.696537    32 ->  34
  -0.673869    33 ->  35

IROOT=  4:  0.234280 au     6.375 eV   51418.5 cm**-1
  Amplitude    Excitation
   0.280874    31 ->  34
  -0.947520    33 ->  36
  Ground state amplitude: -0.000463

Percentage Active Character     99.08

  Amplitude    Excitation in Canonical Basis
   0.279804    31 ->  34
  -0.943051    33 ->  36
   0.106731    33 ->  65

IROOT=  5:  0.240066 au     6.533 eV   52688.5 cm**-1
  Amplitude    Excitation
  -0.150151    31 ->  36
   0.944968    32 ->  35
   0.209153    33 ->  34
  Ground state amplitude:  0.001640

Percentage Active Character     98.65

  Amplitude    Excitation in Canonical Basis
  -0.150350    31 ->  36
  -0.942357    32 ->  35
   0.208736    33 ->  34



-------------------
CPCM SOLVENT SHIFT
-------------------

Reading the CPCM data                  ... done
Making difference densities            ... done
Computing the potentials               ... done
Calculating charges                    ... done

---------------------------------
     CALCULATED SOLVENT SHIFTS   
            CPCM  MODEL          
---------------------------------

Contributions of the 'fast' term to the solvent shift

 State Shift(Eh) Shift(eV) Shift(cm**-1) Shift(nm) Esteom(eV)  Esteom+SHIFT(eV)
-------------------------------------------------------------------------------
   0: -0.0000704 -0.002      -15.5        0.1      4.116          4.114
   1: -0.0001757 -0.005      -38.6        0.2      4.956          4.951
   2: -0.0001088 -0.003      -23.9        0.1      6.219          6.216
   3: -0.0004342 -0.012      -95.3        0.4      6.375          6.363
   4: -0.0001924 -0.005      -42.2        0.2      6.533          6.527

-------------------
CPCM SOLVENT SHIFT
-------------------

Reading the CPCM data                  ... done
Making difference densities            ... done
Computing the potentials               ... done
Calculating charges                    ... done

R0 correction
 State Shift(Eh) Shift(eV)
--------------------------
   0: -0.0000704 -0.002
   1: -0.0001757 -0.005
   2: -0.0001088 -0.003
   3: -0.0004342 -0.012
   4: -0.0001924 -0.005

STEOM-CCSD done ( 1231.4 sec)
Calculating the Dipole integrals                  ... done
Transforming integrals                            ... done
Calculating the Linear Momentum integrals         ... done
Transforming integrals                            ... done
Calculating angular momentum integrals            ... done
Transforming integrals                            ... done

--------------------------------------------------------------------
               UNRELAXED EXCITED STATE DIPOLE MOMENTS
--------------------------------------------------------------------
               E(eV)     DX(au)      DY(au)      DZ(au)      |D|(D)
IROOT=  0:     0.000    0.000005    0.000012    0.000001    0.000032
IROOT=  1:     4.114   -0.000130    0.000236    0.000331    0.001085
IROOT=  2:     4.951   -0.014688   -0.008302   -0.000176    0.042886
IROOT=  3:     6.216   -0.002098    0.006142    0.004044    0.019437
IROOT=  4:     6.363    0.014077    0.008647    0.000156    0.041993
IROOT=  5:     6.527   -0.001474   -0.003237   -0.005932    0.017580
--------------------------------------------------------------------

-----------------------------------------------------------------------------
         ABSORPTION SPECTRUM VIA TRANSITION ELECTRIC DIPOLE MOMENTS
-----------------------------------------------------------------------------
State   Energy  Wavelength   fosc         T2         TX        TY        TZ  
        (cm-1)    (nm)                  (au**2)     (au)      (au)      (au) 
-----------------------------------------------------------------------------
   1   33183.1    301.4   0.000060204   0.00060   0.01960   0.01428   0.00002
   2   39930.3    250.4   0.093617901   0.77185   0.44539   0.75727   0.00001
   3   50132.4    199.5   1.446492602   9.49890   2.65852   1.55922   0.00128
   4   51323.2    194.8   0.000042682   0.00027   0.01443   0.00765   0.00015
   5   52646.2    189.9   0.301040904   1.88249   0.69604   1.18238   0.00191

-------------------------------------------------------------------
                             CD SPECTRUM
-------------------------------------------------------------------
State   Energy Wavelength       R         MX        MY        MZ   
        (cm-1)   (nm)       (1e40*cgs)   (au)      (au)      (au)  
-------------------------------------------------------------------
   1     301.4   33183.1      0.00003   0.00001   0.00011   0.00060
   2     250.4   39930.3     -0.05414  -0.00038   0.00100   0.00130
   3     199.5   50132.4     -0.40564   0.00610  -0.00034   0.01285
   4     194.8   51323.2      0.00255   0.00229  -0.00225  -0.57437
   5     189.9   52646.2     -0.07133   0.00897   0.00943  -0.00784

TDM done ( 1237.7 sec)
STEOM-CCSD done in ( 1237.8)


--------------------------------------------------------------------------------
                                    TIMINGS
--------------------------------------------------------------------------------


Total execution time                   ...     6264.166 sec

Localization of occupied MO's          ...        0.961 sec (  0.0%)
Fock Matrix Formation                  ...       28.840 sec (  0.5%)
Global overlap, Fock, MKN matrices     ...        0.374 sec (  0.0%)
Differential overlap integrals         ...        2.385 sec (  0.0%)
Organizing maps                        ...        0.016 sec (  0.0%)
RI 3-index integral generations        ...       16.608 sec (  0.3%)
RI-PNO integral transformation         ...      908.151 sec ( 14.5%)
Initial Guess                          ...       45.237 sec (  0.7%)
DIIS Solver                            ...        0.201 sec (  0.0%)
State Vector Update                    ...        0.015 sec (  0.0%)
Sigma-vector construction              ...      746.856 sec ( 11.9%)
  <0|H|D>                              ...        0.005 sec (  0.0% of sigma)
  <D|H|D>(0-ext)                       ...       30.462 sec (  4.1% of sigma)
  <D|H|D>(2-ext Fock)                  ...        0.145 sec (  0.0% of sigma)
  <D|H|D>(2-ext)                       ...      111.240 sec ( 14.9% of sigma)
  <D|H|D>(4-ext)                       ...       82.658 sec ( 11.1% of sigma)
  <D|H|D>(4-ext-corr)                  ...      392.920 sec ( 52.6% of sigma)
  CCSD doubles correction              ...        1.313 sec (  0.2% of sigma)
  <S|H|S>                              ...        4.488 sec (  0.6% of sigma)
  <S|H|D>(1-ext)                       ...        3.041 sec (  0.4% of sigma)
  <D|H|S>(1-ext)                       ...        0.087 sec (  0.0% of sigma)
  <S|H|D>(3-ext)                       ...        2.589 sec (  0.3% of sigma)
  CCSD singles correction              ...        0.001 sec (  0.0% of sigma)
  Fock-dressing                        ...       86.389 sec ( 11.6% of sigma)
  Singles amplitudes                   ...        0.416 sec (  0.1% of sigma)
  (ik|jl)-dressing                     ...       18.910 sec (  2.5% of sigma)
  (ij|ab),(ia|jb)-dressing             ...       12.013 sec (  1.6% of sigma)
  Pair energies                        ...        0.040 sec (  0.0% of sigma)
Total Time for computing EOM-CCSD      ...     3199.866 sec ( 51.1% of ALL)
  Dressing integrals                   ...       33.824 sec (  1.1% of (EOM))
  Initial EOM-Guess                    ...        0.023 sec (  0.0% of (EOM))
  EOM Singles                          ...       38.875 sec (  1.2% of (EOM))
  EOM Doubles                          ...     3086.640 sec ( 96.5% of (EOM))
  Build Hamiltonian                    ...        5.844 sec (  0.2% of (EOM))
  Diagonalize Hamiltonian              ...        0.329 sec (  0.0% of (EOM))
  Ritz vectors                         ...        7.591 sec (  0.2% of (EOM))
  Residual vectors                     ...        8.083 sec (  0.3% of (EOM))
One-particle density matrix            ...        1.225 sec (  0.0%)


Maximum memory used throughout the entire MDCI-calculation: 86931.1 MB

-------------------------   --------------------
FINAL SINGLE POINT ENERGY      -384.908886084335
-------------------------   --------------------


                            ***************************************
                            *     ORCA property calculations      *
                            ***************************************

                                    ---------------------
                                    Active property flags
                                    ---------------------
   (+) Dipole Moment


------------------------------------------------------------------------------
                       ORCA ELECTRIC PROPERTIES CALCULATION
------------------------------------------------------------------------------

Dipole Moment Calculation                       ... on
Quadrupole Moment Calculation                   ... off
Polarizability Calculation                      ... off
GBWName                                         ... /scratch/dca0099.335131/Fluor_TZVP_naphtalene.gbw
Electron density                                ... /scratch/dca0099.335131/Fluor_TZVP_naphtalene.scfp
The origin for moment calculation is the CENTER OF MASS  = ( 0.000000, -0.000000 -0.000000)

-------------
DIPOLE MOMENT
-------------
                                X             Y             Z
Electronic contribution:      0.00006       0.00001      -0.00001
Nuclear contribution   :     -0.00005       0.00001       0.00001
                        -----------------------------------------
Total Dipole Moment    :      0.00000       0.00002      -0.00000
                        -----------------------------------------
Magnitude (a.u.)       :      0.00002
Magnitude (Debye)      :      0.00005



--------------------
Rotational spectrum 
--------------------
 
Rotational constants in cm-1:     0.104651     0.041365     0.029647 
Rotational constants in MHz :  3137.370576  1240.091757   888.786035 

 Dipole components along the rotational axes: 
x,y,z [a.u.] :     0.000012     0.000013    -0.000000 
x,y,z [Debye]:     0.000031     0.000033    -0.000001 

 

                           *** MDCI DENSITY ***

------------------------------------------------------------------------------
                       ORCA ELECTRIC PROPERTIES CALCULATION
------------------------------------------------------------------------------

Dipole Moment Calculation                       ... on
Quadrupole Moment Calculation                   ... off
Polarizability Calculation                      ... off
GBWName                                         ... /scratch/dca0099.335131/Fluor_TZVP_naphtalene.gbw
Electron density                                ... /scratch/dca0099.335131/Fluor_TZVP_naphtalene.mdcip
The origin for moment calculation is the CENTER OF MASS  = ( 0.000000, -0.000000 -0.000000)

-------------
DIPOLE MOMENT
-------------
                                X             Y             Z
Electronic contribution:      0.00006      -0.00000      -0.00001
Nuclear contribution   :     -0.00005       0.00001       0.00001
                        -----------------------------------------
Total Dipole Moment    :      0.00000       0.00001       0.00000
                        -----------------------------------------
Magnitude (a.u.)       :      0.00001
Magnitude (Debye)      :      0.00003



--------------------
Rotational spectrum 
--------------------
 
Rotational constants in cm-1:     0.104651     0.041365     0.029647 
Rotational constants in MHz :  3137.370576  1240.091757   888.786035 

 Dipole components along the rotational axes: 
x,y,z [a.u.] :     0.000010     0.000007     0.000001 
x,y,z [Debye]:     0.000025     0.000018     0.000002 

 

------------------------------------------------------------------------------
                           ORCA EXCITED STATE DYNAMICS
------------------------------------------------------------------------------

Requested calculation:				...fluorescence
Coordinate system:				...Deloc. Internal (BAKER)
Lineshape function:				...Voigt
Excited state PES:				...adiabatic hessian
Apply Duschinky rotation:			...no
Use operator derivatives:			...yes
Convert derivatives between states:		...no
Use same frequencies:				...no
Multiroot calculation:				...no
Single mode calculation:			...no
Selected mode calculation:			...no

Ground state hessian:				Fluor_naphtalene.GS.hess
Reading ground state hessian:			...done
Excited state hessian:				Fluor_naphtalene.ES.hess
Reading excited state hessian:			...done

As an ES Hessian was given, HessFlag is now AH!
Adjusting all geometries to center of mass:	...done
Rotating the excited state geometry:		...done
The RMSD is:	0.033658

Writting GS hessian to:				/scratch/dca0099.335131/Fluor_TZVP_naphtalene.GS.hess
Writting ES hessian to:				/scratch/dca0099.335131/Fluor_TZVP_naphtalene.ES.hess
Calculating Wilson`s B Matrix:			...done
Converting to internal coordinates:		...done
Calculating rotation matrix J:			...done
Calculating displacement vector K:		...done
The sum of K*K is:				4.559629

Calculating energy of the ES at its geometry:	...done
Checking for transition data:			...done
Computing transition dipole derivatives		...

		<<Displacing mode 1 (+)>>
		<<Displacing mode 1 (-)>>
		<<Displacing mode 2 (+)>>
		<<Displacing mode 2 (-)>>
		<<Displacing mode 3 (+)>>
		<<Displacing mode 3 (-)>>
		<<Displacing mode 4 (+)>>
		<<Displacing mode 4 (-)>>
		<<Displacing mode 5 (+)>>
		<<Displacing mode 5 (-)>>
		<<Displacing mode 6 (+)>>
		<<Displacing mode 6 (-)>>
		<<Displacing mode 7 (+)>>
		<<Displacing mode 7 (-)>>
		<<Displacing mode 8 (+)>>
		<<Displacing mode 8 (-)>>
		<<Displacing mode 9 (+)>>
		<<Displacing mode 9 (-)>>
		<<Displacing mode 10 (+)>>
		<<Displacing mode 10 (-)>>
		<<Displacing mode 11 (+)>>
		<<Displacing mode 11 (-)>>
		<<Displacing mode 12 (+)>>
		<<Displacing mode 12 (-)>>
		<<Displacing mode 13 (+)>>
		<<Displacing mode 13 (-)>>
		<<Displacing mode 14 (+)>>
		<<Displacing mode 14 (-)>>
		<<Displacing mode 15 (+)>>
		<<Displacing mode 15 (-)>>
		<<Displacing mode 16 (+)>>
		<<Displacing mode 16 (-)>>
		<<Displacing mode 17 (+)>>