
                                 *****************
                                 * O   R   C   A *
                                 *****************

                                            #,                                       
                                            ###                                      
                                            ####                                     
                                            #####                                    
                                            ######                                   
                                           ########,                                 
                                     ,,################,,,,,                         
                               ,,#################################,,                 
                          ,,##########################################,,             
                       ,#########################################, ''#####,          
                    ,#############################################,,   '####,        
                  ,##################################################,,,,####,       
                ,###########''''           ''''###############################       
              ,#####''   ,,,,##########,,,,          '''####'''          '####       
            ,##' ,,,,###########################,,,                        '##       
           ' ,,###''''                  '''############,,,                           
         ,,##''                                '''############,,,,        ,,,,,,###''
      ,#''                                            '''#######################'''  
     '                                                          ''''####''''         
             ,#######,   #######,   ,#######,      ##                                
            ,#'     '#,  ##    ##  ,#'     '#,    #''#        ######   ,####,        
            ##       ##  ##   ,#'  ##            #'  '#       #        #'  '#        
            ##       ##  #######   ##           ,######,      #####,   #    #        
            '#,     ,#'  ##    ##  '#,     ,#' ,#      #,         ##   #,  ,#        
             '#######'   ##     ##  '#######'  #'      '#     #####' # '####'        



                  #######################################################
                  #                        -***-                        #
                  #          Department of theory and spectroscopy      #
                  #    Directorship and core code : Frank Neese         #
                  #        Max Planck Institute fuer Kohlenforschung    #
                  #                Kaiser Wilhelm Platz 1               #
                  #                 D-45470 Muelheim/Ruhr               #
                  #                      Germany                        #
                  #                                                     #
                  #                  All rights reserved                #
                  #                        -***-                        #
                  #######################################################


                         Program Version 5.0.2 -  RELEASE  -


 With contributions from (in alphabetic order):
   Daniel Aravena         : Magnetic Suceptibility
   Michael Atanasov       : Ab Initio Ligand Field Theory (pilot matlab implementation)
   Alexander A. Auer      : GIAO ZORA, VPT2 properties, NMR spectrum
   Ute Becker             : Parallelization
   Giovanni Bistoni       : ED, misc. LED, open-shell LED, HFLD
   Martin Brehm           : Molecular dynamics
   Dmytro Bykov           : SCF Hessian
   Vijay G. Chilkuri      : MRCI spin determinant printing, contributions to CSF-ICE
   Dipayan Datta          : RHF DLPNO-CCSD density
   Achintya Kumar Dutta   : EOM-CC, STEOM-CC
   Dmitry Ganyushin       : Spin-Orbit,Spin-Spin,Magnetic field MRCI
   Miquel Garcia          : C-PCM and meta-GGA Hessian, CC/C-PCM, Gaussian charge scheme
   Yang Guo               : DLPNO-NEVPT2, F12-NEVPT2, CIM, IAO-localization
   Andreas Hansen         : Spin unrestricted coupled pair/coupled cluster methods
   Benjamin Helmich-Paris : MC-RPA, TRAH-SCF, COSX integrals
   Lee Huntington         : MR-EOM, pCC
   Robert Izsak           : Overlap fitted RIJCOSX, COSX-SCS-MP3, EOM
   Marcus Kettner         : VPT2
   Christian Kollmar      : KDIIS, OOCD, Brueckner-CCSD(T), CCSD density, CASPT2, CASPT2-K
   Simone Kossmann        : Meta GGA functionals, TD-DFT gradient, OOMP2, MP2 Hessian
   Martin Krupicka        : Initial AUTO-CI
   Lucas Lang             : DCDCAS
   Marvin Lechner         : AUTO-CI (C++ implementation), FIC-MRCC
   Dagmar Lenk            : GEPOL surface, SMD
   Dimitrios Liakos       : Extrapolation schemes; Compound Job, initial MDCI parallelization
   Dimitrios Manganas     : Further ROCIS development; embedding schemes
   Dimitrios Pantazis     : SARC Basis sets
   Anastasios Papadopoulos: AUTO-CI, single reference methods and gradients
   Taras Petrenko         : DFT Hessian,TD-DFT gradient, ASA, ECA, R-Raman, ABS, FL, XAS/XES, NRVS
   Peter Pinski           : DLPNO-MP2, DLPNO-MP2 Gradient
   Christoph Reimann      : Effective Core Potentials
   Marius Retegan         : Local ZFS, SOC
   Christoph Riplinger    : Optimizer, TS searches, QM/MM, DLPNO-CCSD(T), (RO)-DLPNO pert. Triples
   Tobias Risthaus        : Range-separated hybrids, TD-DFT gradient, RPA, STAB
   Michael Roemelt        : Original ROCIS implementation
   Masaaki Saitow         : Open-shell DLPNO-CCSD energy and density
   Barbara Sandhoefer     : DKH picture change effects
   Avijit Sen             : IP-ROCIS
   Kantharuban Sivalingam : CASSCF convergence, NEVPT2, FIC-MRCI
   Bernardo de Souza      : ESD, SOC TD-DFT
   Georgi Stoychev        : AutoAux, RI-MP2 NMR, DLPNO-MP2 response
   Willem Van den Heuvel  : Paramagnetic NMR
   Boris Wezisla          : Elementary symmetry handling
   Frank Wennmohs         : Technical directorship


 We gratefully acknowledge several colleagues who have allowed us to
 interface, adapt or use parts of their codes:
   Stefan Grimme, W. Hujo, H. Kruse, P. Pracht,  : VdW corrections, initial TS optimization,
                  C. Bannwarth, S. Ehlert          DFT functionals, gCP, sTDA/sTD-DF
   Ed Valeev, F. Pavosevic, A. Kumar             : LibInt (2-el integral package), F12 methods
   Garnet Chan, S. Sharma, J. Yang, R. Olivares  : DMRG
   Ulf Ekstrom                                   : XCFun DFT Library
   Mihaly Kallay                                 : mrcc  (arbitrary order and MRCC methods)
   Jiri Pittner, Ondrej Demel                    : Mk-CCSD
   Frank Weinhold                                : gennbo (NPA and NBO analysis)
   Christopher J. Cramer and Donald G. Truhlar   : smd solvation model
   Lars Goerigk                                  : TD-DFT with DH, B97 family of functionals
   V. Asgeirsson, H. Jonsson                     : NEB implementation
   FAccTs GmbH                                   : IRC, NEB, NEB-TS, DLPNO-Multilevel, CI-OPT
                                                   MM, QMMM, 2- and 3-layer-ONIOM, Crystal-QMMM,
                                                   LR-CPCM, SF, NACMEs, symmetry and pop. for TD-DFT,
                                                   nearIR, NL-DFT gradient (VV10), updates on ESD,
                                                   ML-optimized integration grids
   S Lehtola, MJT Oliveira, MAL Marques          : LibXC Library
   Liviu Ungur et al                             : ANISO software


 Your calculation uses the libint2 library for the computation of 2-el integrals
 For citations please refer to: http://libint.valeyev.net

 Your ORCA version has been built with support for libXC version: 5.1.0
 For citations please refer to: https://tddft.org/programs/libxc/

 This ORCA versions uses:
   CBLAS   interface :  Fast vector & matrix operations
   LAPACKE interface :  Fast linear algebra routines
   SCALAPACK package :  Parallel linear algebra routines
   Shared memory     :  Shared parallel matrices
   BLAS/LAPACK       :  OpenBLAS 0.3.15  USE64BITINT DYNAMIC_ARCH NO_AFFINITY Zen SINGLE_THREADED
        Core in use  :  Zen
   Copyright (c) 2011-2014, The OpenBLAS Project


================================================================================

----- Orbital basis set information -----
Your calculation utilizes the basis: def2-TZVP(-f)
   F. Weigend and R. Ahlrichs, Phys. Chem. Chem. Phys. 7, 3297 (2005).

----- AuxJ basis set information -----
Your calculation utilizes the auxiliary basis: def2/J
   F. Weigend, Phys. Chem. Chem. Phys. 8, 1057 (2006).

================================================================================
                                        WARNINGS
                       Please study these warnings very carefully!
================================================================================


WARNING: Geometry Optimization
  ===> : Switching off AutoStart
         For restart on a previous wavefunction, please use MOREAD

INFO   : the flag for use of the SHARK integral package has been found!

================================================================================
                                       INPUT FILE
================================================================================
NAME = IR_S0_naphtalene.inp
|  1> !UKS B3LYP DEF2-TZVP(-F) RIJCOSX TIGHTSCF CPCM(toluene) TIGHTOPT FREQ NEARIR
|  2> 
|  3> %maxcore  20000
|  4> %PAL 
|  5>    NPROCS 10
|  6> END
|  7> 
|  8> %FREQ
|  9> 	XTBVPT2 FALSE
| 10> END
| 11> 
| 12> # Naphtalene
| 13>   
| 14> * xyz 0 1
| 15>  C                 -8.96362052    0.23923842    0.00026300
| 16>  C                 -7.59081952    0.23923842    0.00026300
| 17>  C                 -6.86888152    1.46435942    0.00026300
| 18>  C                 -7.58675152    2.68822542    0.00063300
| 19>  C                 -9.00816752    2.65885242    0.00078700
| 20>  C                 -9.67967252    1.46087742    0.00049700
| 21>  H                 -4.89980852    0.53939442    0.00002000
| 22>  H                 -9.52435152   -0.70710758    0.00018300
| 23>  H                 -7.02603052   -0.70508358    0.00003500
| 24>  C                 -5.44715452    1.49390242    0.00000000
| 25>  C                 -6.86400152    3.91295142    0.00074800
| 26>  H                 -9.55540852    3.61330842    0.00086900
| 27>  H                -10.77930952    1.43451042    0.00059900
| 28>  C                 -5.49114052    3.91301942    0.00047500
| 29>  C                 -4.77512852    2.69112742    0.00001600
| 30>  H                 -7.42845752    4.85749242    0.00100800
| 31>  H                 -4.93044852    4.85935042    0.00029700
| 32>  H                 -3.67550052    2.71759242   -0.00016600
| 33> *
| 34> 
| 35> 
| 36> 
| 37>                          ****END OF INPUT****
================================================================================

                       *****************************
                       * Geometry Optimization Run *
                       *****************************

Geometry optimization settings:
Update method            Update   .... BFGS
Choice of coordinates    CoordSys .... Z-matrix Internals
Initial Hessian          InHess   .... Almoef's Model

Convergence Tolerances:
Energy Change            TolE     ....  1.0000e-06 Eh
Max. Gradient            TolMAXG  ....  1.0000e-04 Eh/bohr
RMS Gradient             TolRMSG  ....  3.0000e-05 Eh/bohr
Max. Displacement        TolMAXD  ....  1.0000e-03 bohr
RMS Displacement         TolRMSD  ....  6.0000e-04 bohr
Strict Convergence                ....  False
------------------------------------------------------------------------------
                        ORCA OPTIMIZATION COORDINATE SETUP
------------------------------------------------------------------------------

The optimization will be done in new redundant internal coordinates
Making redundant internal coordinates   ...  (new redundants) done
Evaluating the initial hessian          ...  (Almloef) done
Evaluating the coordinates              ...  done
Calculating the B-matrix                .... done
Calculating the G-matrix                .... done
Diagonalizing the G-matrix              .... done
The first mode is                       ....   45
The number of degrees of freedom        ....   48

    -----------------------------------------------------------------
                    Redundant Internal Coordinates


    -----------------------------------------------------------------
         Definition                    Initial Value    Approx d2E/dq
    -----------------------------------------------------------------
      1. B(C   1,C   0)                  1.3728         0.665547   
      2. B(C   2,C   1)                  1.4220         0.555478   
      3. B(C   3,C   2)                  1.4189         0.561930   
      4. B(C   4,C   3)                  1.4217         0.556073   
      5. B(C   5,C   4)                  1.3733         0.664230   
      6. B(C   5,C   0)                  1.4160         0.567825   
      7. B(H   7,C   0)                  1.1000         0.347117   
      8. B(H   8,C   1)                  1.1003         0.346688   
      9. B(C   9,H   6)                  1.1003         0.346721   
     10. B(C   9,C   2)                  1.4220         0.555431   
     11. B(C  10,C   3)                  1.4221         0.555330   
     12. B(H  11,C   4)                  1.1002         0.346845   
     13. B(H  12,C   5)                  1.1000         0.347171   
     14. B(C  13,C  10)                  1.3729         0.665400   
     15. B(C  14,C   9)                  1.3729         0.665205   
     16. B(C  14,C  13)                  1.4162         0.567411   
     17. B(H  15,C  10)                  1.1003         0.346666   
     18. B(H  16,C  13)                  1.1000         0.347159   
     19. B(H  17,C  14)                  1.0999         0.347180   
     20. A(C   1,C   0,H   7)          120.6477         0.354958   
     21. A(C   1,C   0,C   5)          120.3763         0.432739   
     22. A(C   5,C   0,H   7)          118.9760         0.345569   
     23. A(C   0,C   1,C   2)          120.5099         0.431033   
     24. A(C   2,C   1,H   8)          118.6069         0.344224   
     25. A(C   0,C   1,H   8)          120.8832         0.354883   
     26. A(C   3,C   2,C   9)          119.2037         0.418174   
     27. A(C   1,C   2,C   3)          119.0959         0.418180   
     28. A(C   1,C   2,C   9)          121.7004         0.417315   
     29. A(C   2,C   3,C  10)          119.0596         0.418160   
     30. A(C   2,C   3,C   4)          119.2103         0.418260   
     31. A(C   4,C   3,C  10)          121.7300         0.417381   
     32. A(C   3,C   4,C   5)          120.4559         0.430963   
     33. A(C   5,C   4,H  11)          120.8999         0.354792   
     34. A(C   3,C   4,H  11)          118.6441         0.344312   
     35. A(C   0,C   5,C   4)          120.3516         0.432585   
     36. A(C   4,C   5,H  12)          120.6457         0.354848   
     37. A(C   0,C   5,H  12)          119.0027         0.345578   
     38. A(C   2,C   9,H   6)          118.6409         0.344225   
     39. A(H   6,C   9,C  14)          120.8623         0.354858   
     40. A(C   2,C   9,C  14)          120.4968         0.430987   
     41. A(C  13,C  10,H  15)          120.8596         0.354866   
     42. A(C   3,C  10,H  15)          118.5913         0.344205   
     43. A(C   3,C  10,C  13)          120.5491         0.430996   
     44. A(C  14,C  13,H  16)          118.9839         0.345533   
     45. A(C  10,C  13,H  16)          120.6492         0.354952   
     46. A(C  10,C  13,C  14)          120.3669         0.432666   
     47. A(C  13,C  14,H  17)          118.9910         0.345537   
     48. A(C   9,C  14,H  17)          120.6850         0.354938   
     49. A(C   9,C  14,C  13)          120.3239         0.432643   
     50. D(C   2,C   1,C   0,C   5)     -0.0110         0.030947   
     51. D(C   2,C   1,C   0,H   7)    179.9952         0.030947   
     52. D(H   8,C   1,C   0,H   7)      0.0090         0.030947   
     53. D(H   8,C   1,C   0,C   5)   -179.9971         0.030947   
     54. D(C   9,C   2,C   1,C   0)   -179.9875         0.021123   
     55. D(C   3,C   2,C   1,C   0)      0.0171         0.021123   
     56. D(C   3,C   2,C   1,H   8)   -179.9964         0.021123   
     57. D(C   9,C   2,C   1,H   8)     -0.0011         0.021123   
     58. D(C  10,C   3,C   2,C   9)     -0.0008         0.021635   
     59. D(C   4,C   3,C   2,C   9)    179.9950         0.021635   
     60. D(C   4,C   3,C   2,C   1)     -0.0096         0.021635   
     61. D(C  10,C   3,C   2,C   1)    179.9947         0.021635   
     62. D(H  11,C   4,C   3,C   2)   -179.9878         0.021170   
     63. D(C   5,C   4,C   3,C  10)    179.9916         0.021170   
     64. D(C   5,C   4,C   3,C   2)     -0.0040         0.021170   
     65. D(H  11,C   4,C   3,C  10)      0.0078         0.021170   
     66. D(H  12,C   5,C   4,H  11)     -0.0156         0.030816   
     67. D(C   0,C   5,C   4,H  11)    179.9938         0.030816   
     68. D(C   0,C   5,C   4,C   3)      0.0104         0.030816   
     69. D(H  12,C   5,C   0,H   7)      0.0003         0.022110   
     70. D(H  12,C   5,C   0,C   1)   -179.9936         0.022110   
     71. D(H  12,C   5,C   4,C   3)   -179.9990         0.030816   
     72. D(C   4,C   5,C   0,H   7)    179.9910         0.022110   
     73. D(C   4,C   5,C   0,C   1)     -0.0029         0.022110   
     74. D(C  14,C   9,C   2,C   3)     -0.0042         0.021119   
     75. D(C  14,C   9,C   2,C   1)   -179.9995         0.021119   
     76. D(H   6,C   9,C   2,C   3)    179.9818         0.021119   
     77. D(H   6,C   9,C   2,C   1)     -0.0135         0.021119   
     78. D(H  15,C  10,C   3,C   2)    179.9984         0.021111   
     79. D(C  13,C  10,C   3,C   4)   -179.9942         0.021111   
     80. D(C  13,C  10,C   3,C   2)      0.0014         0.021111   
     81. D(H  15,C  10,C   3,C   4)      0.0027         0.021111   
     82. D(H  16,C  13,C  10,H  15)     -0.0130         0.030933   
     83. D(H  16,C  13,C  10,C   3)    179.9839         0.030933   
     84. D(C  14,C  13,C  10,H  15)   -179.9941         0.030933   
     85. D(C  14,C  13,C  10,C   3)      0.0027         0.030933   
     86. D(H  17,C  14,C  13,H  16)      0.0203         0.022077   
     87. D(C   9,C  14,C  13,H  16)   -179.9892         0.022077   
     88. D(C   9,C  14,C  13,C  10)     -0.0078         0.022077   
     89. D(H  17,C  14,C   9,H   6)      0.0130         0.030913   
     90. D(H  17,C  14,C   9,C   2)    179.9987         0.030913   
     91. D(H  17,C  14,C  13,C  10)   -179.9982         0.022077   
     92. D(C  13,C  14,C   9,H   6)   -179.9773         0.030913   
     93. D(C  13,C  14,C   9,C   2)      0.0084         0.030913   
    -----------------------------------------------------------------

Number of atoms                         .... 18
Number of degrees of freedom            .... 93

         *************************************************************
         *                GEOMETRY OPTIMIZATION CYCLE   1            *
         *************************************************************
---------------------------------
CARTESIAN COORDINATES (ANGSTROEM)
---------------------------------
  C     -8.963621    0.239238    0.000263
  C     -7.590820    0.239238    0.000263
  C     -6.868882    1.464359    0.000263
  C     -7.586752    2.688225    0.000633
  C     -9.008168    2.658852    0.000787
  C     -9.679673    1.460877    0.000497
  H     -4.899809    0.539394    0.000020
  H     -9.524352   -0.707108    0.000183
  H     -7.026031   -0.705084    0.000035
  C     -5.447155    1.493902    0.000000
  C     -6.864002    3.912951    0.000748
  H     -9.555409    3.613308    0.000869
  H    -10.779310    1.434510    0.000599
  C     -5.491141    3.913019    0.000475
  C     -4.775129    2.691127    0.000016
  H     -7.428458    4.857492    0.001008
  H     -4.930449    4.859350    0.000297
  H     -3.675501    2.717592   -0.000166

----------------------------
CARTESIAN COORDINATES (A.U.)
----------------------------
  NO LB      ZA    FRAG     MASS         X           Y           Z
   0 C     6.0000    0    12.011  -16.938788    0.452095    0.000497
   1 C     6.0000    0    12.011  -14.344570    0.452095    0.000497
   2 C     6.0000    0    12.011  -12.980305    2.767238    0.000497
   3 C     6.0000    0    12.011  -14.336883    5.080010    0.001196
   4 C     6.0000    0    12.011  -17.022970    5.024503    0.001487
   5 C     6.0000    0    12.011  -18.291930    2.760658    0.000939
   6 H     1.0000    0     1.008   -9.259296    1.019308    0.000038
   7 H     1.0000    0     1.008  -17.998416   -1.336240    0.000346
   8 H     1.0000    0     1.008  -13.277273   -1.332415    0.000066
   9 C     6.0000    0    12.011  -10.293630    2.823066    0.000000
  10 C     6.0000    0    12.011  -12.971083    7.394407    0.001414
  11 H     1.0000    0     1.008  -18.057105    6.828163    0.001642
  12 H     1.0000    0     1.008  -20.369943    2.710832    0.001132
  13 C     6.0000    0    12.011  -10.376752    7.394535    0.000898
  14 C     6.0000    0    12.011   -9.023685    5.085494    0.000030
  15 H     1.0000    0     1.008  -14.037750    9.179330    0.001905
  16 H     1.0000    0     1.008   -9.317197    9.182841    0.000561
  17 H     1.0000    0     1.008   -6.945689    5.135505   -0.000314

--------------------------------
INTERNAL COORDINATES (ANGSTROEM)
--------------------------------
 C      0   0   0     0.000000000000     0.00000000     0.00000000
 C      1   0   0     1.372801000000     0.00000000     0.00000000
 C      2   1   0     1.422011230787   120.50994916     0.00000000
 C      3   2   1     1.418867668162   119.09589823     0.00000000
 C      4   3   2     1.421719466667   119.21032595     0.00000000
 C      5   4   3     1.373340143501   120.45591024     0.00000000
 H      3   2   1     2.175501962675    95.34832588   180.00642783
 H      1   2   3     1.099995460207   120.64768218   179.99515646
 H      2   1   3     1.100332089048   120.88319677   180.01383367
 C      7   3   2     1.100305942082    35.00701268   179.98844792
 C      4   3   2     1.422083454232   119.05963413   179.99468699
 H      5   4   3     1.100208605102   118.64414245   180.01217201
 H      6   5   4     1.099953072118   120.64565435   180.00097002
 C     11   4   3     1.372861028828   120.54905064     0.00000000
 C     10   7   3     1.372940874749   120.86227858   179.98595698
 H     11   4   3     1.100349191946   118.59132252   179.99837506
 H     14  11   4     1.099962686689   120.64917183   179.98386937
 H     15  10   7     1.099946438575   120.68504056     0.00000000

---------------------------
INTERNAL COORDINATES (A.U.)
---------------------------
 C      0   0   0     0.000000000000     0.00000000     0.00000000
 C      1   0   0     2.594217926373     0.00000000     0.00000000
 C      2   1   0     2.687211785548   120.50994916     0.00000000
 C      3   2   1     2.681271313102   119.09589823     0.00000000
 C      4   3   2     2.686660431266   119.21032595     0.00000000
 C      5   4   3     2.595236759936   120.45591024     0.00000000
 H      3   2   1     4.111102913264    95.34832588   180.00642783
 H      1   2   3     2.078690168349   120.64768218   179.99515646
 H      2   1   3     2.079326304666   120.88319677   180.01383367
 C      7   3   2     2.079276894060    35.00701268   179.98844792
 C      4   3   2     2.687348268080   119.05963413   179.99468699
 H      5   4   3     2.079092953827   118.64414245   180.01217201
 H      6   5   4     2.078610066469   120.64565435   180.00097002
 C     11   4   3     2.594331364418   120.54905064     0.00000000
 C     10   7   3     2.594482251342   120.86227858   179.98595698
 H     11   4   3     2.079358624460   118.59132252   179.99837506
 H     14  11   4     2.078628235375   120.64917183   179.98386937
 H     15  10   7     2.078597530888   120.68504056     0.00000000

---------------------
BASIS SET INFORMATION
---------------------
There are 2 groups of distinct atoms

 Group   1 Type C   : 11s6p2d contracted to 5s3p2d pattern {62111/411/11}
 Group   2 Type H   : 5s1p contracted to 3s1p pattern {311/1}

Atom   0C    basis set group =>   1
Atom   1C    basis set group =>   1
Atom   2C    basis set group =>   1
Atom   3C    basis set group =>   1
Atom   4C    basis set group =>   1
Atom   5C    basis set group =>   1
Atom   6H    basis set group =>   2
Atom   7H    basis set group =>   2
Atom   8H    basis set group =>   2
Atom   9C    basis set group =>   1
Atom  10C    basis set group =>   1
Atom  11H    basis set group =>   2
Atom  12H    basis set group =>   2
Atom  13C    basis set group =>   1
Atom  14C    basis set group =>   1
Atom  15H    basis set group =>   2
Atom  16H    basis set group =>   2
Atom  17H    basis set group =>   2
---------------------------------
AUXILIARY/J BASIS SET INFORMATION
---------------------------------
There are 2 groups of distinct atoms

 Group   1 Type C   : 12s5p4d2f1g contracted to 6s4p3d1f1g pattern {711111/2111/211/2/1}
 Group   2 Type H   : 5s2p1d contracted to 3s1p1d pattern {311/2/1}

Atom   0C    basis set group =>   1
Atom   1C    basis set group =>   1
Atom   2C    basis set group =>   1
Atom   3C    basis set group =>   1
Atom   4C    basis set group =>   1
Atom   5C    basis set group =>   1
Atom   6H    basis set group =>   2
Atom   7H    basis set group =>   2
Atom   8H    basis set group =>   2
Atom   9C    basis set group =>   1
Atom  10C    basis set group =>   1
Atom  11H    basis set group =>   2
Atom  12H    basis set group =>   2
Atom  13C    basis set group =>   1
Atom  14C    basis set group =>   1
Atom  15H    basis set group =>   2
Atom  16H    basis set group =>   2
Atom  17H    basis set group =>   2
[1659552650.931038] [c302-011:2290463:0]        rc_iface.c:506  UCX  WARN  using maximal value for RETRY_COUNT (7) instead of 40
[1659552650.931634] [c302-011:2290467:0]        rc_iface.c:506  UCX  WARN  using maximal value for RETRY_COUNT (7) instead of 40
[1659552650.931757] [c302-011:2290466:0]        rc_iface.c:506  UCX  WARN  using maximal value for RETRY_COUNT (7) instead of 40
[1659552650.931895] [c302-011:2290465:0]        rc_iface.c:506  UCX  WARN  using maximal value for RETRY_COUNT (7) instead of 40
[1659552650.932182] [c302-011:2290461:0]        rc_iface.c:506  UCX  WARN  using maximal value for RETRY_COUNT (7) instead of 40
[1659552650.932243] [c302-011:2290464:0]        rc_iface.c:506  UCX  WARN  using maximal value for RETRY_COUNT (7) instead of 40
[1659552650.932412] [c302-011:2290458:0]        rc_iface.c:506  UCX  WARN  using maximal value for RETRY_COUNT (7) instead of 40
[1659552650.932428] [c302-011:2290459:0]        rc_iface.c:506  UCX  WARN  using maximal value for RETRY_COUNT (7) instead of 40
[1659552650.932425] [c302-011:2290460:0]        rc_iface.c:506  UCX  WARN  using maximal value for RETRY_COUNT (7) instead of 40
[1659552650.932752] [c302-011:2290462:0]        rc_iface.c:506  UCX  WARN  using maximal value for RETRY_COUNT (7) instead of 40
[1659552650.935608] [c302-011:2290463:0]        rc_iface.c:506  UCX  WARN  using maximal value for RETRY_COUNT (7) instead of 40
[1659552650.935864] [c302-011:2290466:0]        rc_iface.c:506  UCX  WARN  using maximal value for RETRY_COUNT (7) instead of 40
[1659552650.936110] [c302-011:2290465:0]        rc_iface.c:506  UCX  WARN  using maximal value for RETRY_COUNT (7) instead of 40
[1659552650.936104] [c302-011:2290467:0]        rc_iface.c:506  UCX  WARN  using maximal value for RETRY_COUNT (7) instead of 40
[1659552650.936169] [c302-011:2290460:0]        rc_iface.c:506  UCX  WARN  using maximal value for RETRY_COUNT (7) instead of 40
[1659552650.936400] [c302-011:2290461:0]        rc_iface.c:506  UCX  WARN  using maximal value for RETRY_COUNT (7) instead of 40
[1659552650.936692] [c302-011:2290464:0]        rc_iface.c:506  UCX  WARN  using maximal value for RETRY_COUNT (7) instead of 40
[1659552650.936821] [c302-011:2290462:0]        rc_iface.c:506  UCX  WARN  using maximal value for RETRY_COUNT (7) instead of 40
[1659552650.937229] [c302-011:2290459:0]        rc_iface.c:506  UCX  WARN  using maximal value for RETRY_COUNT (7) instead of 40
[1659552650.937317] [c302-011:2290458:0]        rc_iface.c:506  UCX  WARN  using maximal value for RETRY_COUNT (7) instead of 40


           ************************************************************
           *        Program running with 10 parallel MPI-processes    *
           *              working on a common directory               *
           ************************************************************
------------------------------------------------------------------------------
                           ORCA GTO INTEGRAL CALCULATION
                           -- RI-GTO INTEGRALS CHOSEN --
------------------------------------------------------------------------------
------------------------------------------------------------------------------
                   ___                                                        
                  /   \      - P O W E R E D   B Y -                         
                 /     \                                                     
                 |  |  |   _    _      __       _____    __    __             
                 |  |  |  | |  | |    /  \     |  _  \  |  |  /  |          
                  \  \/   | |  | |   /    \    | | | |  |  | /  /          
                 / \  \   | |__| |  /  /\  \   | |_| |  |  |/  /          
                |  |  |   |  __  | /  /__\  \  |    /   |      \           
                |  |  |   | |  | | |   __   |  |    \   |  |\   \          
                \     /   | |  | | |  |  |  |  | |\  \  |  | \   \       
                 \___/    |_|  |_| |__|  |__|  |_| \__\ |__|  \__/        
                                                                              
                      - O R C A' S   B I G   F R I E N D -                    
                                      &                                       
                       - I N T E G R A L  F E E D E R -                       
                                                                              
 v1 FN, 2020, v2 2021                                                         
------------------------------------------------------------------------------


Reading SHARK input file IR_S0_naphtalene.SHARKINP.tmp ... ok
----------------------
SHARK INTEGRAL PACKAGE
----------------------

Number of atoms                             ...     18
Number of basis functions                   ...    288
Number of shells                            ...    132
Maximum angular momentum                    ...      2
Integral batch strategy                     ... SHARK/LIBINT Hybrid
RI-J (if used) integral strategy            ... SPLIT-RIJ (Revised 2003 algorithm where possible)
Printlevel                                  ...      1
Contraction scheme used                     ... SEGMENTED contraction
Coulomb Range Separation                    ... NOT USED
Exchange Range Separation                   ... NOT USED
Finite Nucleus Model                        ... NOT USED
Auxiliary Coulomb fitting basis             ... AVAILABLE
   # of basis functions in Aux-J            ...    578
   # of shells in Aux-J                     ...    190
   Maximum angular momentum in Aux-J        ...      4
Auxiliary J/K fitting basis                 ... NOT available
Auxiliary Correlation fitting basis         ... NOT available
Auxiliary 'external' fitting basis          ... NOT available
Integral threshold                          ...     2.500000e-11
Primitive cut-off                           ...     2.500000e-12
Primitive pair pre-selection threshold      ...     2.500000e-12

Calculating pre-screening integrals         ... done (  0.0 sec) Dimension = 132
Organizing shell pair data                  ... done (  0.0 sec)
Shell pair information
Total number of shell pairs                 ...      8778
Shell pairs after pre-screening             ...      7919
Total number of primitive shell pairs       ...     28685
Primitive shell pairs kept                  ...     18958
          la=0 lb=0:   2376 shell pairs
          la=1 lb=0:   2552 shell pairs
          la=1 lb=1:    697 shell pairs
          la=2 lb=0:   1364 shell pairs
          la=2 lb=1:    728 shell pairs
          la=2 lb=2:    202 shell pairs

Calculating one electron integrals          ... done (  0.0 sec)
Calculating RI/J V-Matrix + Cholesky decomp.... done (  0.5 sec)
Calculating Nuclear repulsion               ... done (  0.0 sec) ENN=    457.556467130561 Eh

SHARK setup successfully completed in   1.2 seconds

Maximum memory used throughout the entire GTOINT-calculation: 17.0 MB
[1659552653.279868] [c302-011:2290515:0]        rc_iface.c:506  UCX  WARN  using maximal value for RETRY_COUNT (7) instead of 40
[1659552653.279979] [c302-011:2290517:0]        rc_iface.c:506  UCX  WARN  using maximal value for RETRY_COUNT (7) instead of 40
[1659552653.279978] [c302-011:2290519:0]        rc_iface.c:506  UCX  WARN  using maximal value for RETRY_COUNT (7) instead of 40
[1659552653.282952] [c302-011:2290517:0]        rc_iface.c:506  UCX  WARN  using maximal value for RETRY_COUNT (7) instead of 40
[1659552653.283080] [c302-011:2290519:0]        rc_iface.c:506  UCX  WARN  using maximal value for RETRY_COUNT (7) instead of 40
[1659552653.283183] [c302-011:2290515:0]        rc_iface.c:506  UCX  WARN  using maximal value for RETRY_COUNT (7) instead of 40
[1659552653.295636] [c302-011:2290513:0]        rc_iface.c:506  UCX  WARN  using maximal value for RETRY_COUNT (7) instead of 40
[1659552653.298421] [c302-011:2290513:0]        rc_iface.c:506  UCX  WARN  using maximal value for RETRY_COUNT (7) instead of 40
[1659552653.347601] [c302-011:2290514:0]        rc_iface.c:506  UCX  WARN  using maximal value for RETRY_COUNT (7) instead of 40
[1659552653.347671] [c302-011:2290512:0]        rc_iface.c:506  UCX  WARN  using maximal value for RETRY_COUNT (7) instead of 40
[1659552653.347835] [c302-011:2290518:0]        rc_iface.c:506  UCX  WARN  using maximal value for RETRY_COUNT (7) instead of 40
[1659552653.347831] [c302-011:2290521:0]        rc_iface.c:506  UCX  WARN  using maximal value for RETRY_COUNT (7) instead of 40
[1659552653.348089] [c302-011:2290516:0]        rc_iface.c:506  UCX  WARN  using maximal value for RETRY_COUNT (7) instead of 40
[1659552653.348087] [c302-011:2290525:0]        rc_iface.c:506  UCX  WARN  using maximal value for RETRY_COUNT (7) instead of 40
[1659552653.350892] [c302-011:2290512:0]        rc_iface.c:506  UCX  WARN  using maximal value for RETRY_COUNT (7) instead of 40
[1659552653.351016] [c302-011:2290514:0]        rc_iface.c:506  UCX  WARN  using maximal value for RETRY_COUNT (7) instead of 40
[1659552653.351164] [c302-011:2290518:0]        rc_iface.c:506  UCX  WARN  using maximal value for RETRY_COUNT (7) instead of 40
[1659552653.351276] [c302-011:2290516:0]        rc_iface.c:506  UCX  WARN  using maximal value for RETRY_COUNT (7) instead of 40
[1659552653.351330] [c302-011:2290525:0]        rc_iface.c:506  UCX  WARN  using maximal value for RETRY_COUNT (7) instead of 40
[1659552653.351533] [c302-011:2290521:0]        rc_iface.c:506  UCX  WARN  using maximal value for RETRY_COUNT (7) instead of 40


           ************************************************************
           *        Program running with 10 parallel MPI-processes    *
           *              working on a common directory               *
           ************************************************************
-------------------------------------------------------------------------------
                                 ORCA SCF
-------------------------------------------------------------------------------

------------
SCF SETTINGS
------------
Hamiltonian:
 Density Functional     Method          .... DFT(GTOs)
 Exchange Functional    Exchange        .... B88
   X-Alpha parameter    XAlpha          ....  0.666667
   Becke's b parameter  XBeta           ....  0.004200
 Correlation Functional Correlation     .... LYP
 LDA part of GGA corr.  LDAOpt          .... VWN-5
 Gradients option       PostSCFGGA      .... off
 Hybrid DFT is turned on
   Fraction HF Exchange ScalHFX         ....  0.200000
   Scaling of DF-GGA-X  ScalDFX         ....  0.720000
   Scaling of DF-GGA-C  ScalDFC         ....  0.810000
   Scaling of DF-LDA-C  ScalLDAC        ....  1.000000
   Perturbative correction              ....  0.000000
   Density functional embedding theory  .... OFF
   NL short-range parameter             ....  4.800000
 RI-approximation to the Coulomb term is turned on
   Number of AuxJ basis functions       .... 578
   RIJ-COSX (HFX calculated with COS-X)).... on


General Settings:
 Integral files         IntName         .... IR_S0_naphtalene
 Hartree-Fock type      HFTyp           .... UHF
 Total Charge           Charge          ....    0
 Multiplicity           Mult            ....    1
 Number of Electrons    NEL             ....   68
 Basis Dimension        Dim             ....  288
 Nuclear Repulsion      ENuc            ....    457.5564671306 Eh

Convergence Acceleration:
 DIIS                   CNVDIIS         .... on
   Start iteration      DIISMaxIt       ....    12
   Startup error        DIISStart       ....  0.200000
   # of expansion vecs  DIISMaxEq       ....     5
   Bias factor          DIISBfac        ....   1.050
   Max. coefficient     DIISMaxC        ....  10.000
 Trust-Rad. Augm. Hess. CNVTRAH         .... auto
   Auto Start mean grad. ratio tolernc. ....  1.125000
   Auto Start start iteration           ....    20
   Auto Start num. interpolation iter.  ....    10
   Max. Number of Micro iterations      ....    16
   Max. Number of Macro iterations      .... Maxiter - #DIIS iter
   Number of Davidson start vectors     ....     2
   Converg. threshold I  (grad. norm)   ....   1.000e-05
   Converg. threshold II (energy diff.) ....   1.000e-08
   Grad. Scal. Fac. for Micro threshold ....   0.100
   Minimum threshold for Micro iter.    ....   0.010
   NR start threshold (gradient norm)   ....   0.001
   Initial trust radius                 ....   0.400
   Minimum AH scaling param. (alpha)    ....   1.000
   Maximum AH scaling param. (alpha)    .... 1000.000
   Orbital update algorithm             .... Taylor
   White noise on init. David. guess    .... on
   Maximum white noise                  ....   0.010
   Quad. conv. algorithm                .... NR
 SOSCF                  CNVSOSCF        .... off
 Level Shifting         CNVShift        .... on
   Level shift para.    LevelShift      ....    0.2500
   Turn off err/grad.   ShiftErr        ....    0.0010
 Zerner damping         CNVZerner       .... off
 Static damping         CNVDamp         .... on
   Fraction old density DampFac         ....    0.7000
   Max. Damping (<1)    DampMax         ....    0.9800
   Min. Damping (>=0)   DampMin         ....    0.0000
   Turn off err/grad.   DampErr         ....    0.1000
 Fernandez-Rico         CNVRico         .... off

SCF Procedure:
 Maximum # iterations   MaxIter         ....   125
 SCF integral mode      SCFMode         .... Direct
   Integral package                     .... SHARK and LIBINT hybrid scheme
 Reset frequency        DirectResetFreq ....    20
 Integral Threshold     Thresh          ....  2.500e-11 Eh
 Primitive CutOff       TCut            ....  2.500e-12 Eh

Convergence Tolerance:
 Convergence Check Mode ConvCheckMode   .... Total+1el-Energy
 Convergence forced     ConvForced      .... 0
 Energy Change          TolE            ....  1.000e-08 Eh
 1-El. energy change                    ....  1.000e-05 Eh
 DIIS Error             TolErr          ....  5.000e-07


Diagonalization of the overlap matrix:
Smallest eigenvalue                        ... 7.041e-06
Time for diagonalization                   ...    0.011 sec
Threshold for overlap eigenvalues          ... 1.000e-08
Number of eigenvalues below threshold      ... 0
Time for construction of square roots      ...    0.040 sec
Total time needed                          ...    0.052 sec

Time for model grid setup =    0.370 sec

------------------------------
INITIAL GUESS: MODEL POTENTIAL
------------------------------
Loading Hartree-Fock densities                     ... done
Calculating cut-offs                               ... done
Initializing the effective Hamiltonian             ... done
Setting up the integral package (SHARK)            ... done
Starting the Coulomb interaction                   ... done (   0.3 sec)
Reading the grid                                   ... done
Mapping shells                                     ... done
Starting the XC term evaluation                    ... done (   0.0 sec)
  promolecular density results
     # of electrons  =     67.995335935
     EX              =    -53.771895809
     EC              =     -2.262894391
     EX+EC           =    -56.034790200
Transforming the Hamiltonian                       ... done (   0.0 sec)
Diagonalizing the Hamiltonian                      ... done (   0.0 sec)
Back transforming the eigenvectors                 ... done (   0.0 sec)
Now organizing SCF variables                       ... done
                      ------------------
                      INITIAL GUESS DONE (   0.8 sec)
                      ------------------
-------------------
DFT GRID GENERATION
-------------------

General Integration Accuracy     IntAcc      ... 4.388
Radial Grid Type                 RadialGrid  ... OptM3 with GC (2021)
Angular Grid (max. ang.)         AngularGrid ... 4 (Lebedev-302)
Angular grid pruning method      GridPruning ... 4 (adaptive)
Weight generation scheme         WeightScheme... Becke
Basis function cutoff            BFCut       ... 1.0000e-11
Integration weight cutoff        WCut        ... 1.0000e-14
Angular grids for H and He will be reduced by one unit
Partially contracted basis set               ... off
Rotationally invariant grid construction     ... off

Total number of grid points                  ...    85602
Total number of batches                      ...     1348
Average number of points per batch           ...       63
Average number of grid points per atom       ...     4756
Time for grid setup =    0.594 sec

--------------------
COSX GRID GENERATION
--------------------

GRIDX 1
-------
General Integration Accuracy     IntAcc      ... 3.816
Radial Grid Type                 RadialGrid  ... OptM3 with GC (2021)
Angular Grid (max. ang.)         AngularGrid ... 1 (Lebedev-50)
Angular grid pruning method      GridPruning ... 4 (adaptive)
Weight generation scheme         WeightScheme... Becke
Basis function cutoff            BFCut       ... 1.0000e-11
Integration weight cutoff        WCut        ... 1.0000e-14
Angular grids for H and He will be reduced by one unit
Partially contracted basis set               ... on
Rotationally invariant grid construction     ... off

Total number of grid points                  ...    10962
Total number of batches                      ...      176
Average number of points per batch           ...       62
Average number of grid points per atom       ...      609
UseSFitting                                  ... on

GRIDX 2
-------
General Integration Accuracy     IntAcc      ... 4.020
Radial Grid Type                 RadialGrid  ... OptM3 with GC (2021)
Angular Grid (max. ang.)         AngularGrid ... 2 (Lebedev-110)
Angular grid pruning method      GridPruning ... 4 (adaptive)
Weight generation scheme         WeightScheme... Becke
Basis function cutoff            BFCut       ... 1.0000e-11
Integration weight cutoff        WCut        ... 1.0000e-14
Angular grids for H and He will be reduced by one unit
Partially contracted basis set               ... on
Rotationally invariant grid construction     ... off

Total number of grid points                  ...    23868
Total number of batches                      ...      384
Average number of points per batch           ...       62
Average number of grid points per atom       ...     1326
UseSFitting                                  ... on

GRIDX 3
-------
General Integration Accuracy     IntAcc      ... 4.338
Radial Grid Type                 RadialGrid  ... OptM3 with GC (2021)
Angular Grid (max. ang.)         AngularGrid ... 3 (Lebedev-194)
Angular grid pruning method      GridPruning ... 4 (adaptive)
Weight generation scheme         WeightScheme... Becke
Basis function cutoff            BFCut       ... 1.0000e-11
Integration weight cutoff        WCut        ... 1.0000e-14
Angular grids for H and He will be reduced by one unit
Partially contracted basis set               ... on
Rotationally invariant grid construction     ... off

Total number of grid points                  ...    52509
Total number of batches                      ...      828
Average number of points per batch           ...       63
Average number of grid points per atom       ...     2917
UseSFitting                                  ... on

Time for X-Grid setup             =    1.823 sec


--------------------
CPCM SOLVATION MODEL
--------------------
CPCM parameters:
  Epsilon                                         ...       2.4000
  Refrac                                          ...       1.4970
  Rsolv                                           ...       1.3000
  Surface type                                    ... GAUSSIAN VDW
  Epsilon function type                           ...         CPCM
Radii:
 Radius for C  used is    3.8550 Bohr (=   2.0400 Ang.)
 Radius for H  used is    2.4944 Bohr (=   1.3200 Ang.)
Calculating surface                               ...        done! (  0.0s)
GEPOL surface points                              ...          996
GEPOL Volume                                      ...    1151.7327
GEPOL Surface-area                                ...     619.4947
Calculating surface distance matrix               ...        done! (  0.0s)
Performing Cholesky decomposition & store         ...        done! (  0.0s)
Overall time for CPCM initialization              ...                 0.0s
--------------
SCF ITERATIONS
--------------
ITER       Energy         Delta-E        Max-DP      RMS-DP      [F,P]     Damp
               ***  Starting incremental Fock matrix formation  ***
  0   -385.5534071506   0.000000000000 0.03662834  0.00088665  0.1429741 0.7000
  1   -385.6510606003  -0.097653449646 0.02647359  0.00065239  0.0771124 0.7000
                               ***Turning on DIIS***
  2   -385.6957412578  -0.044680657559 0.04996812  0.00120301  0.0335644 0.0000
  3   -385.7581747992  -0.062433541363 0.01099258  0.00035387  0.0421888 0.0000
  4   -385.7747786198  -0.016603820646 0.00395646  0.00011928  0.0079175 0.0000
  5   -385.7755677118  -0.000789092001 0.00098008  0.00003730  0.0016314 0.0000
  6   -385.7756110928  -0.000043380971 0.00149805  0.00003556  0.0006437 0.0000
               *** Restarting incremental Fock matrix formation ***
                                   *** Resetting DIIS ***
  7   -385.7755639581   0.000047134695 0.00054672  0.00001500  0.0002140 0.0000
  8   -385.7755637900   0.000000168106 0.00004872  0.00000159  0.0002950 0.0000
  9   -385.7755643499  -0.000000559923 0.00005066  0.00000081  0.0000277 0.0000
 10   -385.7755643512  -0.000000001285 0.00001076  0.00000027  0.0000195 0.0000
 11   -385.7755643441   0.000000007135 0.00004363  0.00000103  0.0000037 0.0000
                 **** Energy Check signals convergence ****

               *****************************************************
               *                     SUCCESS                       *
               *           SCF CONVERGED AFTER  12 CYCLES          *
               *****************************************************

Old exchange energy                            =    -10.935450974 Eh
New exchange energy                            =    -10.935415797 Eh
Exchange energy change after final integration =      0.000035177 Eh
Total energy after final integration           =   -385.775529166 Eh
Final COS-X integration done in                =     2.031 sec

----------------
TOTAL SCF ENERGY
----------------

Total Energy       :         -385.77552917 Eh          -10497.48583 eV

Components:
Nuclear Repulsion  :          457.55646713 Eh           12450.74445 eV
Electronic Energy  :         -843.33199630 Eh          -22948.23028 eV
One Electron Energy:        -1426.28882004 Eh          -38811.29192 eV
Two Electron Energy:          582.95682374 Eh           15863.06164 eV
Max COSX asymmetry :            0.00000027 Eh               0.00001 eV
CPCM Dielectric    :           -0.00369175 Eh              -0.10046 eV

Virial components:
Potential Energy   :         -769.61637289 Eh          -20942.32619 eV
Kinetic Energy     :          383.84084373 Eh           10444.84036 eV
Virial Ratio       :            2.00504033


DFT components:
N(Alpha)           :       34.000048604743 electrons
N(Beta)            :       34.000048604743 electrons
N(Total)           :       68.000097209485 electrons
E(X)               :      -43.429379804758 Eh       
E(C)               :       -2.677505125224 Eh       
E(XC)              :      -46.106884929982 Eh       
DFET-embed. en.    :        0.000000000000 Eh       
CPCM Solvation Model Properties:
Surface-charge          :           -0.02892191
Charge-correction       :            0.00003730 Eh               0.00102 eV
Free-energy (cav+disp)  :  This term is not implemented in the current solvation scheme

---------------
SCF CONVERGENCE
---------------

  Last Energy change         ...    6.2727e-10  Tolerance :   1.0000e-08
  Last MAX-Density change    ...    0.0000e+00  Tolerance :   1.0000e-07
  Last RMS-Density change    ...    0.0000e+00  Tolerance :   5.0000e-09
  Last DIIS Error            ...    1.6143e-06  Tolerance :   5.0000e-07

             **** THE GBW FILE WAS UPDATED (IR_S0_naphtalene.gbw) ****
             **** DENSITY IR_S0_naphtalene.scfp WAS UPDATED ****
             **** ENERGY FILE WAS UPDATED (IR_S0_naphtalene.en.tmp) ****
----------------------
UHF SPIN CONTAMINATION
----------------------

Warning: in a DFT calculation there is little theoretical justification to 
         calculate <S**2> as in Hartree-Fock theory. We will do it anyways
         but you should keep in mind that the values have only limited relevance

Expectation value of <S**2>     :     0.000000
Ideal value S*(S+1) for S=0.0   :     0.000000
Deviation                       :     0.000000

             **** THE GBW FILE WAS UPDATED (IR_S0_naphtalene.gbw) ****
             **** DENSITY IR_S0_naphtalene.scfp WAS UPDATED ****
----------------
ORBITAL ENERGIES
----------------
                 SPIN UP ORBITALS
  NO   OCC          E(Eh)            E(eV) 
   0   1.0000     -10.184419      -277.1321 
   1   1.0000     -10.183994      -277.1206 
   2   1.0000     -10.176989      -276.9300 
   3   1.0000     -10.176950      -276.9289 
   4   1.0000     -10.176886      -276.9272 
   5   1.0000     -10.176875      -276.9269 
   6   1.0000     -10.176224      -276.9091 
   7   1.0000     -10.176200      -276.9085 
   8   1.0000     -10.175822      -276.8982 
   9   1.0000     -10.175806      -276.8978 
  10   1.0000      -0.877268       -23.8717 
  11   1.0000      -0.822927       -22.3930 
  12   1.0000      -0.774040       -21.0627 
  13   1.0000      -0.742232       -20.1972 
  14   1.0000      -0.719178       -19.5698 
  15   1.0000      -0.625343       -17.0164 
  16   1.0000      -0.611092       -16.6287 
  17   1.0000      -0.596747       -16.2383 
  18   1.0000      -0.513279       -13.9670 
  19   1.0000      -0.506624       -13.7859 
  20   1.0000      -0.495423       -13.4811 
  21   1.0000      -0.445602       -12.1254 
  22   1.0000      -0.442874       -12.0512 
  23   1.0000      -0.419062       -11.4032 
  24   1.0000      -0.416256       -11.3269 
  25   1.0000      -0.399592       -10.8735 
  26   1.0000      -0.396043       -10.7769 
  27   1.0000      -0.368250       -10.0206 
  28   1.0000      -0.339628        -9.2417 
  29   1.0000      -0.333122        -9.0647 
  30   1.0000      -0.332740        -9.0543 
  31   1.0000      -0.290094        -7.8939 
  32   1.0000      -0.250241        -6.8094 
  33   1.0000      -0.222257        -6.0479 
  34   0.0000      -0.046709        -1.2710 
  35   0.0000      -0.018668        -0.5080 
  36   0.0000       0.012897         0.3509 
  37   0.0000       0.052701         1.4341 
  38   0.0000       0.065376         1.7790 
  39   0.0000       0.069090         1.8800 
  40   0.0000       0.087363         2.3773 
  41   0.0000       0.097743         2.6597 
  42   0.0000       0.100681         2.7397 
  43   0.0000       0.110371         3.0033 
  44   0.0000       0.123413         3.3582 
  45   0.0000       0.128475         3.4960 
  46   0.0000       0.151740         4.1291 
  47   0.0000       0.159286         4.3344 
  48   0.0000       0.165065         4.4917 
  49   0.0000       0.183805         5.0016 
  50   0.0000       0.189776         5.1641 
  51   0.0000       0.193057         5.2533 
  52   0.0000       0.195479         5.3192 
  53   0.0000       0.224931         6.1207 
  54   0.0000       0.233269         6.3476 
  55   0.0000       0.245873         6.6906 
  56   0.0000       0.247026         6.7219 
  57   0.0000       0.252159         6.8616 
  58   0.0000       0.256695         6.9850 
  59   0.0000       0.265842         7.2339 
  60   0.0000       0.277949         7.5634 
  61   0.0000       0.278217         7.5707 
  62   0.0000       0.278901         7.5893 
  63   0.0000       0.301815         8.2128 
  64   0.0000       0.304848         8.2953 
  65   0.0000       0.320419         8.7190 
  66   0.0000       0.323731         8.8092 
  67   0.0000       0.349883         9.5208 
  68   0.0000       0.350256         9.5310 
  69   0.0000       0.351485         9.5644 
  70   0.0000       0.352612         9.5951 
  71   0.0000       0.358504         9.7554 
  72   0.0000       0.370948        10.0940 
  73   0.0000       0.395045        10.7497 
  74   0.0000       0.397468        10.8156 
  75   0.0000       0.415409        11.3039 
  76   0.0000       0.417207        11.3528 
  77   0.0000       0.419528        11.4159 
  78   0.0000       0.426109        11.5950 
  79   0.0000       0.436384        11.8746 
  80   0.0000       0.439209        11.9515 
  81   0.0000       0.464521        12.6403 
  82   0.0000       0.469122        12.7655 
  83   0.0000       0.469936        12.7876 
  84   0.0000       0.485678        13.2160 
  85   0.0000       0.492991        13.4150 
  86   0.0000       0.497350        13.5336 
  87   0.0000       0.510486        13.8910 
  88   0.0000       0.520136        14.1536 
  89   0.0000       0.520287        14.1577 
  90   0.0000       0.532096        14.4791 
  91   0.0000       0.559985        15.2380 
  92   0.0000       0.565696        15.3934 
  93   0.0000       0.580571        15.7981 
  94   0.0000       0.621118        16.9015 
  95   0.0000       0.630731        17.1631 
  96   0.0000       0.668465        18.1899 
  97   0.0000       0.669245        18.2111 
  98   0.0000       0.675052        18.3691 
  99   0.0000       0.690639        18.7932 
 100   0.0000       0.704222        19.1628 
 101   0.0000       0.715860        19.4795 
 102   0.0000       0.719705        19.5842 
 103   0.0000       0.725806        19.7502 
 104   0.0000       0.732949        19.9446 
 105   0.0000       0.743857        20.2414 
 106   0.0000       0.744449        20.2575 
 107   0.0000       0.758311        20.6347 
 108   0.0000       0.761974        20.7344 
 109   0.0000       0.810078        22.0433 
 110   0.0000       0.830549        22.6004 
 111   0.0000       0.832909        22.6646 
 112   0.0000       0.845796        23.0153 
 113   0.0000       0.866422        23.5765 
 114   0.0000       0.869692        23.6655 
 115   0.0000       0.876141        23.8410 
 116   0.0000       0.883870        24.0513 
 117   0.0000       0.885241        24.0886 
 118   0.0000       0.924288        25.1512 
 119   0.0000       0.930360        25.3164 
 120   0.0000       0.959149        26.0998 
 121   0.0000       0.984979        26.8026 
 122   0.0000       0.990992        26.9663 
 123   0.0000       0.992945        27.0194 
 124   0.0000       1.019378        27.7387 
 125   0.0000       1.073205        29.2034 
 126   0.0000       1.094436        29.7811 
 127   0.0000       1.096374        29.8338 
 128   0.0000       1.122455        30.5436 
 129   0.0000       1.144629        31.1469 
 130   0.0000       1.145036        31.1580 
 131   0.0000       1.171544        31.8793 
 132   0.0000       1.208324        32.8802 
 133   0.0000       1.216821        33.1114 
 134   0.0000       1.241761        33.7900 
 135   0.0000       1.245466        33.8908 
 136   0.0000       1.247085        33.9349 
 137   0.0000       1.248298        33.9679 
 138   0.0000       1.248974        33.9863 
 139   0.0000       1.262836        34.3635 
 140   0.0000       1.277695        34.7678 
 141   0.0000       1.286002        34.9939 
 142   0.0000       1.305435        35.5227 
 143   0.0000       1.341890        36.5147 
 144   0.0000       1.373104        37.3641 
 145   0.0000       1.402160        38.1547 
 146   0.0000       1.404239        38.2113 
 147   0.0000       1.416159        38.5356 
 148   0.0000       1.419676        38.6313 
 149   0.0000       1.424079        38.7511 
 150   0.0000       1.467367        39.9291 
 151   0.0000       1.496030        40.7091 
 152   0.0000       1.499576        40.8055 
 153   0.0000       1.520404        41.3723 
 154   0.0000       1.526553        41.5396 
 155   0.0000       1.538672        41.8694 
 156   0.0000       1.539020        41.8789 
 157   0.0000       1.565592        42.6019 
 158   0.0000       1.567033        42.6411 
 159   0.0000       1.592193        43.3258 
 160   0.0000       1.606438        43.7134 
 161   0.0000       1.609543        43.7979 
 162   0.0000       1.663794        45.2741 
 163   0.0000       1.666810        45.3562 
 164   0.0000       1.670664        45.4611 
 165   0.0000       1.680311        45.7236 
 166   0.0000       1.685595        45.8674 
 167   0.0000       1.708371        46.4871 
 168   0.0000       1.724825        46.9349 
 169   0.0000       1.727011        46.9944 
 170   0.0000       1.732750        47.1505 
 171   0.0000       1.737723        47.2859 
 172   0.0000       1.767727        48.1023 
 173   0.0000       1.804788        49.1108 
 174   0.0000       1.836379        49.9704 
 175   0.0000       1.865752        50.7697 
 176   0.0000       1.870444        50.8974 
 177   0.0000       1.881263        51.1918 
 178   0.0000       1.945899        52.9506 
 179   0.0000       2.008465        54.6531 
 180   0.0000       2.026187        55.1354 
 181   0.0000       2.050063        55.7851 
 182   0.0000       2.056812        55.9687 
 183   0.0000       2.061423        56.0942 
 184   0.0000       2.077795        56.5397 
 185   0.0000       2.148941        58.4757 
 186   0.0000       2.252539        61.2947 
 187   0.0000       2.258489        61.4566 
 188   0.0000       2.262203        61.5577 
 189   0.0000       2.298496        62.5453 
 190   0.0000       2.317911        63.0736 
 191   0.0000       2.318308        63.0844 
 192   0.0000       2.321379        63.1679 
 193   0.0000       2.358302        64.1727 
 194   0.0000       2.359215        64.1975 
 195   0.0000       2.366499        64.3957 
 196   0.0000       2.402970        65.3881 
 197   0.0000       2.447692        66.6051 
 198   0.0000       2.458709        66.9049 
 199   0.0000       2.480187        67.4893 
 200   0.0000       2.559803        69.6558 
 201   0.0000       2.586245        70.3753 
 202   0.0000       2.638002        71.7837 
 203   0.0000       2.641529        71.8797 
 204   0.0000       2.658760        72.3485 
 205   0.0000       2.671257        72.6886 
 206   0.0000       2.677338        72.8541 
 207   0.0000       2.688887        73.1683 
 208   0.0000       2.691145        73.2298 
 209   0.0000       2.701056        73.4995 
 210   0.0000       2.740360        74.5690 
 211   0.0000       2.758166        75.0535 
 212   0.0000       2.777556        75.5812 
 213   0.0000       2.807177        76.3872 
 214   0.0000       2.850739        77.5725 
 215   0.0000       2.859311        77.8058 
 216   0.0000       2.859839        77.8202 
 217   0.0000       2.901839        78.9631 
 218   0.0000       2.907214        79.1093 
 219   0.0000       2.911408        79.2234 
 220   0.0000       2.916313        79.3569 
 221   0.0000       2.934498        79.8517 
 222   0.0000       2.942553        80.0709 
 223   0.0000       2.946754        80.1852 
 224   0.0000       2.950536        80.2882 
 225   0.0000       3.000266        81.6414 
 226   0.0000       3.006796        81.8191 
 227   0.0000       3.008361        81.8617 
 228   0.0000       3.013063        81.9896 
 229   0.0000       3.043443        82.8163 
 230   0.0000       3.070966        83.5652 
 231   0.0000       3.071959        83.5922 
 232   0.0000       3.075405        83.6860 
 233   0.0000       3.086014        83.9747 
 234   0.0000       3.118877        84.8690 
 235   0.0000       3.170249        86.2669 
 236   0.0000       3.174254        86.3758 
 237   0.0000       3.178310        86.4862 
 238   0.0000       3.204330        87.1942 
 239   0.0000       3.228543        87.8531 
 240   0.0000       3.252711        88.5108 
 241   0.0000       3.261377        88.7466 
 242   0.0000       3.306895        89.9852 
 243   0.0000       3.325665        90.4959 
 244   0.0000       3.342949        90.9663 
 245   0.0000       3.346127        91.0528 
 246   0.0000       3.354507        91.2808 
 247   0.0000       3.359149        91.4071 
 248   0.0000       3.372583        91.7726 
 249   0.0000       3.392640        92.3184 
 250   0.0000       3.398934        92.4897 
 251   0.0000       3.429540        93.3225 
 252   0.0000       3.440564        93.6225 
 253   0.0000       3.467728        94.3617 
 254   0.0000       3.493127        95.0528 
 255   0.0000       3.507507        95.4441 
 256   0.0000       3.549826        96.5957 
 257   0.0000       3.587380        97.6176 
 258   0.0000       3.587871        97.6309 
 259   0.0000       3.589972        97.6881 
 260   0.0000       3.619356        98.4877 
 261   0.0000       3.664646        99.7201 
 262   0.0000       3.710979       100.9809 
 263   0.0000       3.777466       102.7901 
 264   0.0000       3.782717       102.9330 
 265   0.0000       3.818637       103.9104 
 266   0.0000       3.879954       105.5789 
 267   0.0000       3.880148       105.5842 
 268   0.0000       3.902753       106.1993 
 269   0.0000       3.960180       107.7620 
 270   0.0000       4.007440       109.0480 
 271   0.0000       4.030074       109.6639 
 272   0.0000       4.159266       113.1794 
 273   0.0000       4.272614       116.2637 
 274   0.0000       4.284619       116.5904 
 275   0.0000       4.360187       118.6467 
 276   0.0000       4.451665       121.1360 
 277   0.0000       4.578505       124.5875 
 278   0.0000      21.339278       580.6713 
 279   0.0000      21.856761       594.7527 
 280   0.0000      22.122574       601.9858 
 281   0.0000      22.131982       602.2418 
 282   0.0000      22.293270       606.6307 
 283   0.0000      22.296787       606.7264 
 284   0.0000      22.414351       609.9255 
 285   0.0000      22.428964       610.3231 
 286   0.0000      22.563418       613.9818 
 287   0.0000      23.256166       632.8325 

                 SPIN DOWN ORBITALS
  NO   OCC          E(Eh)            E(eV) 
   0   1.0000     -10.184419      -277.1321 
   1   1.0000     -10.183994      -277.1206 
   2   1.0000     -10.176989      -276.9300 
   3   1.0000     -10.176950      -276.9289 
   4   1.0000     -10.176886      -276.9272 
   5   1.0000     -10.176875      -276.9269 
   6   1.0000     -10.176224      -276.9091 
   7   1.0000     -10.176200      -276.9085 
   8   1.0000     -10.175822      -276.8982 
   9   1.0000     -10.175806      -276.8978 
  10   1.0000      -0.877268       -23.8717 
  11   1.0000      -0.822927       -22.3930 
  12   1.0000      -0.774040       -21.0627 
  13   1.0000      -0.742232       -20.1972 
  14   1.0000      -0.719178       -19.5698 
  15   1.0000      -0.625343       -17.0164 
  16   1.0000      -0.611092       -16.6287 
  17   1.0000      -0.596747       -16.2383 
  18   1.0000      -0.513279       -13.9670 
  19   1.0000      -0.506624       -13.7859 
  20   1.0000      -0.495423       -13.4811 
  21   1.0000      -0.445602       -12.1254 
  22   1.0000      -0.442874       -12.0512 
  23   1.0000      -0.419062       -11.4032 
  24   1.0000      -0.416256       -11.3269 
  25   1.0000      -0.399592       -10.8735 
  26   1.0000      -0.396043       -10.7769 
  27   1.0000      -0.368250       -10.0206 
  28   1.0000      -0.339628        -9.2417 
  29   1.0000      -0.333122        -9.0647 
  30   1.0000      -0.332740        -9.0543 
  31   1.0000      -0.290094        -7.8939 
  32   1.0000      -0.250241        -6.8094 
  33   1.0000      -0.222257        -6.0479 
  34   0.0000      -0.046709        -1.2710 
  35   0.0000      -0.018668        -0.5080 
  36   0.0000       0.012897         0.3509 
  37   0.0000       0.052701         1.4341 
  38   0.0000       0.065376         1.7790 
  39   0.0000       0.069090         1.8800 
  40   0.0000       0.087363         2.3773 
  41   0.0000       0.097743         2.6597 
  42   0.0000       0.100681         2.7397 
  43   0.0000       0.110371         3.0033 
  44   0.0000       0.123413         3.3582 
  45   0.0000       0.128475         3.4960 
  46   0.0000       0.151740         4.1291 
  47   0.0000       0.159286         4.3344 
  48   0.0000       0.165065         4.4917 
  49   0.0000       0.183805         5.0016 
  50   0.0000       0.189776         5.1641 
  51   0.0000       0.193057         5.2533 
  52   0.0000       0.195479         5.3192 
  53   0.0000       0.224931         6.1207 
  54   0.0000       0.233269         6.3476 
  55   0.0000       0.245873         6.6906 
  56   0.0000       0.247026         6.7219 
  57   0.0000       0.252159         6.8616 
  58   0.0000       0.256695         6.9850 
  59   0.0000       0.265842         7.2339 
  60   0.0000       0.277949         7.5634 
  61   0.0000       0.278217         7.5707 
  62   0.0000       0.278901         7.5893 
  63   0.0000       0.301815         8.2128 
  64   0.0000       0.304848         8.2953 
  65   0.0000       0.320419         8.7190 
  66   0.0000       0.323731         8.8092 
  67   0.0000       0.349883         9.5208 
  68   0.0000       0.350256         9.5310 
  69   0.0000       0.351485         9.5644 
  70   0.0000       0.352612         9.5951 
  71   0.0000       0.358504         9.7554 
  72   0.0000       0.370948        10.0940 
  73   0.0000       0.395045        10.7497 
  74   0.0000       0.397468        10.8156 
  75   0.0000       0.415409        11.3039 
  76   0.0000       0.417207        11.3528 
  77   0.0000       0.419528        11.4159 
  78   0.0000       0.426109        11.5950 
  79   0.0000       0.436384        11.8746 
  80   0.0000       0.439209        11.9515 
  81   0.0000       0.464521        12.6403 
  82   0.0000       0.469122        12.7655 
  83   0.0000       0.469936        12.7876 
  84   0.0000       0.485678        13.2160 
  85   0.0000       0.492991        13.4150 
  86   0.0000       0.497350        13.5336 
  87   0.0000       0.510486        13.8910 
  88   0.0000       0.520136        14.1536 
  89   0.0000       0.520287        14.1577 
  90   0.0000       0.532096        14.4791 
  91   0.0000       0.559985        15.2380 
  92   0.0000       0.565696        15.3934 
  93   0.0000       0.580571        15.7981 
  94   0.0000       0.621118        16.9015 
  95   0.0000       0.630731        17.1631 
  96   0.0000       0.668465        18.1899 
  97   0.0000       0.669245        18.2111 
  98   0.0000       0.675052        18.3691 
  99   0.0000       0.690639        18.7932 
 100   0.0000       0.704222        19.1628 
 101   0.0000       0.715860        19.4795 
 102   0.0000       0.719705        19.5842 
 103   0.0000       0.725806        19.7502 
 104   0.0000       0.732949        19.9446 
 105   0.0000       0.743857        20.2414 
 106   0.0000       0.744449        20.2575 
 107   0.0000       0.758311        20.6347 
 108   0.0000       0.761974        20.7344 
 109   0.0000       0.810078        22.0433 
 110   0.0000       0.830549        22.6004 
 111   0.0000       0.832909        22.6646 
 112   0.0000       0.845796        23.0153 
 113   0.0000       0.866422        23.5765 
 114   0.0000       0.869692        23.6655 
 115   0.0000       0.876141        23.8410 
 116   0.0000       0.883870        24.0513 
 117   0.0000       0.885241        24.0886 
 118   0.0000       0.924288        25.1512 
 119   0.0000       0.930360        25.3164 
 120   0.0000       0.959149        26.0998 
 121   0.0000       0.984979        26.8026 
 122   0.0000       0.990992        26.9663 
 123   0.0000       0.992945        27.0194 
 124   0.0000       1.019378        27.7387 
 125   0.0000       1.073205        29.2034 
 126   0.0000       1.094436        29.7811 
 127   0.0000       1.096374        29.8338 
 128   0.0000       1.122455        30.5436 
 129   0.0000       1.144629        31.1469 
 130   0.0000       1.145036        31.1580 
 131   0.0000       1.171544        31.8793 
 132   0.0000       1.208324        32.8802 
 133   0.0000       1.216821        33.1114 
 134   0.0000       1.241761        33.7900 
 135   0.0000       1.245466        33.8908 
 136   0.0000       1.247085        33.9349 
 137   0.0000       1.248298        33.9679 
 138   0.0000       1.248974        33.9863 
 139   0.0000       1.262836        34.3635 
 140   0.0000       1.277695        34.7678 
 141   0.0000       1.286002        34.9939 
 142   0.0000       1.305435        35.5227 
 143   0.0000       1.341890        36.5147 
 144   0.0000       1.373104        37.3641 
 145   0.0000       1.402160        38.1547 
 146   0.0000       1.404239        38.2113 
 147   0.0000       1.416159        38.5356 
 148   0.0000       1.419676        38.6313 
 149   0.0000       1.424079        38.7511 
 150   0.0000       1.467367        39.9291 
 151   0.0000       1.496030        40.7091 
 152   0.0000       1.499576        40.8055 
 153   0.0000       1.520404        41.3723 
 154   0.0000       1.526553        41.5396 
 155   0.0000       1.538672        41.8694 
 156   0.0000       1.539020        41.8789 
 157   0.0000       1.565592        42.6019 
 158   0.0000       1.567033        42.6411 
 159   0.0000       1.592193        43.3258 
 160   0.0000       1.606438        43.7134 
 161   0.0000       1.609543        43.7979 
 162   0.0000       1.663794        45.2741 
 163   0.0000       1.666810        45.3562 
 164   0.0000       1.670664        45.4611 
 165   0.0000       1.680311        45.7236 
 166   0.0000       1.685595        45.8674 
 167   0.0000       1.708371        46.4871 
 168   0.0000       1.724825        46.9349 
 169   0.0000       1.727011        46.9944 
 170   0.0000       1.732750        47.1505 
 171   0.0000       1.737723        47.2859 
 172   0.0000       1.767727        48.1023 
 173   0.0000       1.804788        49.1108 
 174   0.0000       1.836379        49.9704 
 175   0.0000       1.865752        50.7697 
 176   0.0000       1.870444        50.8974 
 177   0.0000       1.881263        51.1918 
 178   0.0000       1.945899        52.9506 
 179   0.0000       2.008465        54.6531 
 180   0.0000       2.026187        55.1354 
 181   0.0000       2.050063        55.7851 
 182   0.0000       2.056812        55.9687 
 183   0.0000       2.061423        56.0942 
 184   0.0000       2.077795        56.5397 
 185   0.0000       2.148941        58.4757 
 186   0.0000       2.252539        61.2947 
 187   0.0000       2.258489        61.4566 
 188   0.0000       2.262203        61.5577 
 189   0.0000       2.298496        62.5453 
 190   0.0000       2.317911        63.0736 
 191   0.0000       2.318308        63.0844 
 192   0.0000       2.321379        63.1679 
 193   0.0000       2.358302        64.1727 
 194   0.0000       2.359215        64.1975 
 195   0.0000       2.366499        64.3957 
 196   0.0000       2.402970        65.3881 
 197   0.0000       2.447692        66.6051 
 198   0.0000       2.458709        66.9049 
 199   0.0000       2.480187        67.4893 
 200   0.0000       2.559803        69.6558 
 201   0.0000       2.586245        70.3753 
 202   0.0000       2.638002        71.7837 
 203   0.0000       2.641529        71.8797 
 204   0.0000       2.658760        72.3485 
 205   0.0000       2.671257        72.6886 
 206   0.0000       2.677338        72.8541 
 207   0.0000       2.688887        73.1683 
 208   0.0000       2.691145        73.2298 
 209   0.0000       2.701056        73.4995 
 210   0.0000       2.740360        74.5690 
 211   0.0000       2.758166        75.0535 
 212   0.0000       2.777556        75.5812 
 213   0.0000       2.807177        76.3872 
 214   0.0000       2.850739        77.5725 
 215   0.0000       2.859311        77.8058 
 216   0.0000       2.859839        77.8202 
 217   0.0000       2.901839        78.9631 
 218   0.0000       2.907214        79.1093 
 219   0.0000       2.911408        79.2234 
 220   0.0000       2.916313        79.3569 
 221   0.0000       2.934498        79.8517 
 222   0.0000       2.942553        80.0709 
 223   0.0000       2.946754        80.1852 
 224   0.0000       2.950536        80.2882 
 225   0.0000       3.000266        81.6414 
 226   0.0000       3.006796        81.8191 
 227   0.0000       3.008361        81.8617 
 228   0.0000       3.013063        81.9896 
 229   0.0000       3.043443        82.8163 
 230   0.0000       3.070966        83.5652 
 231   0.0000       3.071959        83.5922 
 232   0.0000       3.075405        83.6860 
 233   0.0000       3.086014        83.9747 
 234   0.0000       3.118877        84.8690 
 235   0.0000       3.170249        86.2669 
 236   0.0000       3.174254        86.3758 
 237   0.0000       3.178310        86.4862 
 238   0.0000       3.204330        87.1942 
 239   0.0000       3.228543        87.8531 
 240   0.0000       3.252711        88.5108 
 241   0.0000       3.261377        88.7466 
 242   0.0000       3.306895        89.9852 
 243   0.0000       3.325665        90.4959 
 244   0.0000       3.342949        90.9663 
 245   0.0000       3.346127        91.0528 
 246   0.0000       3.354507        91.2808 
 247   0.0000       3.359149        91.4071 
 248   0.0000       3.372583        91.7726 
 249   0.0000       3.392640        92.3184 
 250   0.0000       3.398934        92.4897 
 251   0.0000       3.429540        93.3225 
 252   0.0000       3.440564        93.6225 
 253   0.0000       3.467728        94.3617 
 254   0.0000       3.493127        95.0528 
 255   0.0000       3.507507        95.4441 
 256   0.0000       3.549826        96.5957 
 257   0.0000       3.587380        97.6176 
 258   0.0000       3.587871        97.6309 
 259   0.0000       3.589972        97.6881 
 260   0.0000       3.619356        98.4877 
 261   0.0000       3.664646        99.7201 
 262   0.0000       3.710979       100.9809 
 263   0.0000       3.777466       102.7901 
 264   0.0000       3.782717       102.9330 
 265   0.0000       3.818637       103.9104 
 266   0.0000       3.879954       105.5789 
 267   0.0000       3.880148       105.5842 
 268   0.0000       3.902753       106.1993 
 269   0.0000       3.960180       107.7620 
 270   0.0000       4.007440       109.0480 
 271   0.0000       4.030074       109.6639 
 272   0.0000       4.159266       113.1794 
 273   0.0000       4.272614       116.2637 
 274   0.0000       4.284619       116.5904 
 275   0.0000       4.360187       118.6467 
 276   0.0000       4.451665       121.1360 
 277   0.0000       4.578505       124.5875 
 278   0.0000      21.339278       580.6713 
 279   0.0000      21.856761       594.7527 
 280   0.0000      22.122574       601.9858 
 281   0.0000      22.131982       602.2418 
 282   0.0000      22.293270       606.6307 
 283   0.0000      22.296787       606.7264 
 284   0.0000      22.414351       609.9255 
 285   0.0000      22.428964       610.3231 
 286   0.0000      22.563418       613.9818 
 287   0.0000      23.256166       632.8325 

                    ********************************
                    * MULLIKEN POPULATION ANALYSIS *
                    ********************************

--------------------------------------------
MULLIKEN ATOMIC CHARGES AND SPIN POPULATIONS
--------------------------------------------
   0 C :   -0.074348    0.000000
   1 C :   -0.240731    0.000000
   2 C :    0.250467    0.000000
   3 C :    0.250304    0.000000
   4 C :   -0.239427    0.000000
   5 C :   -0.075392    0.000000
   6 H :    0.093781    0.000000
   7 H :    0.096475    0.000000
   8 H :    0.093281    0.000000
   9 C :   -0.239682    0.000000
  10 C :   -0.241087    0.000000
  11 H :    0.093846    0.000000
  12 H :    0.096253    0.000000
  13 C :   -0.074269    0.000000
  14 C :   -0.075379    0.000000
  15 H :    0.093183    0.000000
  16 H :    0.096473    0.000000
  17 H :    0.096251    0.000000
Sum of atomic charges         :    0.0000000
Sum of atomic spin populations:    0.0000000

-----------------------------------------------------
MULLIKEN REDUCED ORBITAL CHARGES AND SPIN POPULATIONS
-----------------------------------------------------
CHARGE
[...]
 39+  48:  4589.48   0.000000    0.00  0.000000  (-0.000018  0.000014  0.000000)
 39+  49:  4592.10   0.000015    0.08  0.000001  ( 0.000513 -0.000873 -0.000001)
 39+  50:  4602.10   0.000027    0.14  0.000002  ( 0.001171  0.000664 -0.000001)
 39+  51:  4603.05   0.000000    0.00  0.000000  (-0.000001  0.000001  0.000000)
 39+  52:  4613.88   0.000000    0.00  0.000000  (-0.000001  0.000001  0.000000)
 39+  53:  4614.78   0.000001    0.00  0.000000  (-0.000121  0.000152  0.000000)
 40+  40:  2986.51   0.000000    0.00  0.000000  ( 0.000002  0.000002 -0.000000)
 40+  41:  2986.74   0.000000    0.00  0.000000  (-0.000001 -0.000001 -0.000001)
 40+  42:  3040.81   0.000013    0.06  0.000001  (-0.000865 -0.000755 -0.000000)
 40+  43:  3102.98   0.000000    0.00  0.000000  (-0.000001 -0.000001  0.000001)
 40+  44:  3130.36   0.000010    0.05  0.000001  ( 0.000869 -0.000536 -0.000000)
 40+  45:  3158.66   0.000000    0.00  0.000000  (-0.000001 -0.000001  0.000000)
 40+  46:  4655.85   0.000000    0.00  0.000000  (-0.000000 -0.000001 -0.000000)
 40+  47:  4657.24   0.000001    0.00  0.000000  (-0.000169  0.000109  0.000000)
 40+  48:  4659.51   0.000000    0.00  0.000000  (-0.000106  0.000099  0.000000)
 40+  49:  4662.13   0.000000    0.00  0.000000  (-0.000001 -0.000001 -0.000000)
 40+  50:  4672.13   0.000000    0.00  0.000000  (-0.000001 -0.000001  0.000000)
 40+  51:  4673.08   0.000001    0.00  0.000000  ( 0.000155 -0.000135  0.000000)
 40+  52:  4683.90   0.000016    0.08  0.000001  (-0.000949 -0.000413  0.000000)
 40+  53:  4684.81   0.000000    0.00  0.000000  (-0.000001  0.000000  0.000001)
 41+  41:  2986.97   0.000000    0.00  0.000000  ( 0.000001  0.000001  0.000001)
 41+  42:  3041.04   0.000003    0.02  0.000000  ( 0.000442 -0.000389 -0.000001)
 41+  43:  3103.21   0.000000    0.00  0.000000  (-0.000002 -0.000000 -0.000001)
 41+  44:  3130.59   0.000039    0.20  0.000004  ( 0.001553  0.001206 -0.000000)
 41+  45:  3158.89   0.000000    0.00  0.000000  (-0.000000 -0.000000 -0.000000)
 41+  46:  4656.08   0.000000    0.00  0.000000  (-0.000000 -0.000000 -0.000002)
 41+  47:  4657.47   0.000003    0.01  0.000000  (-0.000378 -0.000228 -0.000000)
 41+  48:  4659.74   0.000008    0.04  0.000001  (-0.000388  0.000606 -0.000000)
 41+  49:  4662.36   0.000000    0.00  0.000000  (-0.000001 -0.000001 -0.000001)
 41+  50:  4672.36   0.000000    0.00  0.000000  (-0.000001 -0.000001 -0.000000)
 41+  51:  4673.31   0.000001    0.01  0.000000  ( 0.000203  0.000213 -0.000001)
 41+  52:  4684.13   0.000004    0.02  0.000000  (-0.000058  0.000539 -0.000001)
 41+  53:  4685.04   0.000000    0.00  0.000000  (-0.000000  0.000001 -0.000000)
 42+  42:  3095.10   0.000000    0.00  0.000000  ( 0.000002  0.000002  0.000001)
 42+  43:  3157.27   0.000004    0.02  0.000000  ( 0.000516  0.000325 -0.000000)
 42+  44:  3184.66   0.000000    0.00  0.000000  (-0.000001 -0.000001 -0.000000)
 42+  45:  3212.96   0.000001    0.01  0.000000  (-0.000183  0.000280  0.000000)
 42+  46:  4710.14   0.000070    0.36  0.000005  ( 0.001071 -0.001874 -0.000001)
 42+  47:  4711.54   0.000000    0.00  0.000000  (-0.000001  0.000004 -0.000000)
 42+  48:  4713.80   0.000000    0.00  0.000000  (-0.000001 -0.000000 -0.000001)
 42+  49:  4716.43   0.000002    0.01  0.000000  ( 0.000273  0.000202 -0.000001)
 42+  50:  4726.43   0.000011    0.06  0.000001  (-0.000440  0.000739 -0.000000)
 42+  51:  4727.37   0.000000    0.00  0.000000  (-0.000001 -0.000000  0.000000)
 42+  52:  4738.20   0.000000    0.00  0.000000  ( 0.000001 -0.000000 -0.000001)
 42+  53:  4739.10   0.000010    0.05  0.000001  ( 0.000716  0.000416 -0.000000)
 43+  43:  3219.45   0.000000    0.00  0.000000  ( 0.000001  0.000001 -0.000001)
 43+  44:  3246.83   0.000001    0.00  0.000000  (-0.000177  0.000182  0.000000)
 43+  45:  3275.13   0.000000    0.00  0.000000  (-0.000001 -0.000001  0.000000)
 43+  46:  4772.31   0.000000    0.00  0.000000  ( 0.000000 -0.000002  0.000000)
 43+  47:  4773.71   0.000259    1.31  0.000017  ( 0.002056 -0.003565 -0.000000)
 43+  48:  4775.98   0.000013    0.07  0.000001  ( 0.000839  0.000395  0.000000)
 43+  49:  4778.60   0.000000    0.00  0.000000  (-0.000001 -0.000002  0.000000)
 43+  50:  4788.60   0.000000    0.00  0.000000  (-0.000001 -0.000001  0.000000)
 43+  51:  4789.55   0.000052    0.26  0.000003  ( 0.000935 -0.001582  0.000001)
 43+  52:  4800.37   0.000007    0.03  0.000000  ( 0.000559  0.000346 -0.000000)
 43+  53:  4801.28   0.000000    0.00  0.000000  (-0.000000  0.000001  0.000001)
 44+  44:  3274.22   0.000000    0.00  0.000000  ( 0.000002  0.000001  0.000000)
 44+  45:  3302.52   0.000021    0.11  0.000002  ( 0.001183  0.000752  0.000000)
 44+  46:  4799.70   0.000053    0.27  0.000003  (-0.001584 -0.000953  0.000000)
 44+  47:  4801.09   0.000000    0.00  0.000000  (-0.000002  0.000002 -0.000000)
 44+  48:  4803.36   0.000000    0.00  0.000000  (-0.000002 -0.000001 -0.000000)
 44+  49:  4805.98   0.000001    0.01  0.000000  (-0.000182  0.000228 -0.000001)
 44+  50:  4815.98   0.000054    0.27  0.000003  (-0.001616 -0.000926 -0.000000)
 44+  51:  4816.93   0.000000    0.00  0.000000  (-0.000000 -0.000000  0.000000)
 44+  52:  4827.76   0.000000    0.00  0.000000  (-0.000000 -0.000001 -0.000001)
 44+  53:  4828.66   0.000020    0.10  0.000001  (-0.000577  0.000985  0.000001)
 45+  45:  3330.81   0.000000    0.00  0.000000  ( 0.000001  0.000001 -0.000000)
 45+  46:  4828.00   0.000000    0.00  0.000000  (-0.000002 -0.000001  0.000000)
 45+  47:  4829.39   0.000109    0.55  0.000007  (-0.002290 -0.001343  0.000000)
 45+  48:  4831.66   0.000003    0.02  0.000000  ( 0.000161 -0.000426 -0.000000)
 45+  49:  4834.28   0.000000    0.00  0.000000  (-0.000002 -0.000001 -0.000001)
 45+  50:  4844.28   0.000000    0.00  0.000000  (-0.000001  0.000000  0.000000)
 45+  51:  4845.23   0.000057    0.29  0.000004  ( 0.001666  0.000951  0.000001)
 45+  52:  4856.06   0.000018    0.09  0.000001  (-0.000536  0.000928  0.000001)
 45+  53:  4856.96   0.000000    0.00  0.000000  (-0.000001  0.000000  0.000000)
 46+  46:  6325.18   0.000000    0.00  0.000000  ( 0.000001  0.000003  0.000000)
 46+  47:  6326.58   0.000469    2.37  0.000023  ( 0.004076  0.002556  0.000000)
 46+  48:  6328.84   0.001022    5.17  0.000050  ( 0.003669 -0.006078 -0.000001)
 46+  49:  6331.46   0.000000    0.00  0.000000  (-0.000000 -0.000000 -0.000001)
 46+  50:  6341.47   0.000000    0.00  0.000000  ( 0.000001  0.000001  0.000000)
 46+  51:  6342.41   0.000232    1.17  0.000011  (-0.002877 -0.001774  0.000000)
 46+  52:  6353.24   0.000001    0.00  0.000000  ( 0.000063 -0.000163 -0.000000)
 46+  53:  6354.14   0.000000    0.00  0.000000  ( 0.000001 -0.000000  0.000000)
 47+  47:  6327.97   0.000000    0.00  0.000000  ( 0.000000 -0.000001 -0.000001)
 47+  48:  6330.24   0.000000    0.00  0.000000  (-0.000002  0.000001  0.000000)
 47+  49:  6332.86   0.000785    3.96  0.000039  ( 0.003154 -0.005359 -0.000001)
 47+  50:  6342.86   0.000404    2.04  0.000020  ( 0.003823  0.002298  0.000001)
 47+  51:  6343.81   0.000000    0.00  0.000000  ( 0.000001  0.000002  0.000000)
 47+  52:  6354.63   0.000000    0.00  0.000000  (-0.000003  0.000002  0.000000)
 47+  53:  6355.54   0.000014    0.07  0.000001  ( 0.000359 -0.000744  0.000000)
 48+  48:  6332.51   0.000000    0.00  0.000000  ( 0.000009  0.000004 -0.000000)
 48+  49:  6335.13   0.000140    0.71  0.000007  ( 0.002376  0.001113 -0.000001)
 48+  50:  6345.13   0.000147    0.74  0.000007  (-0.001256  0.002378  0.000000)
 48+  51:  6346.08   0.000000    0.00  0.000000  (-0.000001 -0.000003  0.000000)
 48+  52:  6356.90   0.000000    0.00  0.000000  (-0.000001 -0.000000 -0.000001)
 48+  53:  6357.81   0.000086    0.44  0.000004  ( 0.001758  0.001073  0.000000)
 49+  49:  6337.75   0.000000    0.00  0.000000  ( 0.000001 -0.000001  0.000001)
 49+  50:  6347.75   0.000000    0.00  0.000000  ( 0.000001 -0.000002 -0.000001)
 49+  51:  6348.70   0.000114    0.58  0.000006  ( 0.001131 -0.002084 -0.000001)
 49+  52:  6359.52   0.000060    0.30  0.000003  ( 0.001462  0.000886 -0.000001)
 49+  53:  6360.43   0.000000    0.00  0.000000  (-0.000000  0.000000 -0.000001)
 50+  50:  6357.75   0.000000    0.00  0.000000  ( 0.000003  0.000000 -0.000000)
 50+  51:  6358.70   0.000537    2.71  0.000026  (-0.004275 -0.002839  0.000001)
 50+  52:  6369.52   0.000238    1.20  0.000012  ( 0.001689 -0.002969 -0.000001)
 50+  53:  6370.43   0.000000    0.00  0.000000  ( 0.000000 -0.000002 -0.000000)
 51+  51:  6359.65   0.000000    0.00  0.000000  ( 0.000001  0.000001 -0.000000)
 51+  52:  6370.47   0.000000    0.00  0.000000  ( 0.000000 -0.000001 -0.000000)
 51+  53:  6371.38   0.000047    0.24  0.000002  (-0.000730  0.001330  0.000001)
 52+  52:  6381.30   0.000000    0.00  0.000000  (-0.000001 -0.000002  0.000000)
 52+  53:  6382.20   0.000216    1.09  0.000011  ( 0.002796  0.001661 -0.000000)
 53+  53:  6383.11   0.000000    0.00  0.000000  ( 0.000003  0.000001 -0.000000)

* The epsilon (eps) is given for a Dirac delta lineshape.
** The dipole moment derivative (T) already includes vibrational overlap.

The first frequency considered to be a vibration is 6
The total number of vibrations considered is 48


--------------------------
THERMOCHEMISTRY AT 298.15K
--------------------------

Temperature         ... 298.15 K
Pressure            ... 1.00 atm
Total Mass          ... 128.17 AMU

Throughout the following assumptions are being made:
  (1) The electronic state is orbitally nondegenerate
  (2) There are no thermally accessible electronically excited states
  (3) Hindered rotations indicated by low frequency modes are not
      treated as such but are treated as vibrations and this may
      cause some error
  (4) All equations used are the standard statistical mechanics
      equations for an ideal gas
  (5) All vibrations are strictly harmonic

freq.     172.60  E(vib)   ...       0.38 
freq.     186.43  E(vib)   ...       0.37 
freq.     365.82  E(vib)   ...       0.22 
freq.     396.42  E(vib)   ...       0.20 
freq.     481.23  E(vib)   ...       0.15 
freq.     487.62  E(vib)   ...       0.15 
freq.     519.79  E(vib)   ...       0.13 
freq.     519.80  E(vib)   ...       0.13 
freq.     633.12  E(vib)   ...       0.09 
freq.     636.70  E(vib)   ...       0.09 
freq.     727.46  E(vib)   ...       0.06 
freq.     773.19  E(vib)   ...       0.05 
freq.     789.47  E(vib)   ...       0.05 
freq.     797.41  E(vib)   ...       0.05 
freq.     810.61  E(vib)   ...       0.05 
freq.     848.57  E(vib)   ...       0.04 
freq.     902.10  E(vib)   ...       0.03 
freq.     946.98  E(vib)   ...       0.03 
freq.     955.38  E(vib)   ...       0.03 
freq.     961.75  E(vib)   ...       0.03 
freq.     967.81  E(vib)   ...       0.03 
freq.     973.11  E(vib)   ...       0.03 
freq.    1033.79  E(vib)   ...       0.02 
freq.    1043.71  E(vib)   ...       0.02 
freq.    1150.75  E(vib)   ...       0.01 
freq.    1168.17  E(vib)   ...       0.01 
freq.    1170.89  E(vib)   ...       0.01 
freq.    1182.59  E(vib)   ...       0.01 
freq.    1229.40  E(vib)   ...       0.01 
freq.    1275.16  E(vib)   ...       0.01 
freq.    1288.59  E(vib)   ...       0.01 
freq.    1390.10  E(vib)   ...       0.00 
freq.    1393.60  E(vib)   ...       0.00 
freq.    1423.23  E(vib)   ...       0.00 
freq.    1493.26  E(vib)   ...       0.00 
freq.    1493.49  E(vib)   ...       0.00 
freq.    1547.55  E(vib)   ...       0.00 
freq.    1609.72  E(vib)   ...       0.00 
freq.    1637.11  E(vib)   ...       0.00 
freq.    1665.41  E(vib)   ...       0.00 
freq.    3162.59  E(vib)   ...       0.00 
freq.    3163.99  E(vib)   ...       0.00 
freq.    3166.25  E(vib)   ...       0.00 
freq.    3168.87  E(vib)   ...       0.00 
freq.    3178.88  E(vib)   ...       0.00 
freq.    3179.82  E(vib)   ...       0.00 
freq.    3190.65  E(vib)   ...       0.00 
freq.    3191.55  E(vib)   ...       0.00 

------------
INNER ENERGY
------------

The inner energy is: U= E(el) + E(ZPE) + E(vib) + E(rot) + E(trans)
    E(el)   - is the total energy from the electronic structure calculation
              = E(kin-el) + E(nuc-el) + E(el-el) + E(nuc-nuc)
    E(ZPE)  - the the zero temperature vibrational energy from the frequency calculation
    E(vib)  - the the finite temperature correction to E(ZPE) due to population
              of excited vibrational states
    E(rot)  - is the rotational thermal energy
    E(trans)- is the translational thermal energy

Summary of contributions to the inner energy U:
Electronic energy                ...   -385.77711368 Eh
Zero point energy                ...      0.14683350 Eh      92.14 kcal/mol
Thermal vibrational correction   ...      0.00400062 Eh       2.51 kcal/mol
Thermal rotational correction    ...      0.00141627 Eh       0.89 kcal/mol
Thermal translational correction ...      0.00141627 Eh       0.89 kcal/mol
-----------------------------------------------------------------------
Total thermal energy                   -385.62344701 Eh


Summary of corrections to the electronic energy:
(perhaps to be used in another calculation)
Total thermal correction                  0.00683316 Eh       4.29 kcal/mol
Non-thermal (ZPE) correction              0.14683350 Eh      92.14 kcal/mol
-----------------------------------------------------------------------
Total correction                          0.15366667 Eh      96.43 kcal/mol


--------
ENTHALPY
--------

The enthalpy is H = U + kB*T
                kB is Boltzmann's constant
Total free energy                 ...   -385.62344701 Eh 
Thermal Enthalpy correction       ...      0.00094421 Eh       0.59 kcal/mol
-----------------------------------------------------------------------
Total Enthalpy                    ...   -385.62250280 Eh


Note: Rotational entropy computed according to Herzberg 
Infrared and Raman Spectra, Chapter V,1, Van Nostrand Reinhold, 1945 
Point Group:  C2h, Symmetry Number:   2  
Rotational constants in cm-1:     0.104525     0.041262     0.029584 

Vibrational entropy computed according to the QRRHO of S. Grimme
Chem.Eur.J. 2012 18 9955


-------
ENTROPY
-------

The entropy contributions are T*S = T*(S(el)+S(vib)+S(rot)+S(trans))
     S(el)   - electronic entropy
     S(vib)  - vibrational entropy
     S(rot)  - rotational entropy
     S(trans)- translational entropy
The entropies will be listed as multiplied by the temperature to get
units of energy

Electronic entropy                ...      0.00000000 Eh      0.00 kcal/mol
Vibrational entropy               ...      0.00602727 Eh      3.78 kcal/mol
Rotational entropy                ...      0.01308943 Eh      8.21 kcal/mol
Translational entropy             ...      0.01922279 Eh     12.06 kcal/mol
-----------------------------------------------------------------------
Final entropy term                ...      0.03833949 Eh     24.06 kcal/mol

In case the symmetry of your molecule has not been determined correctly
or in case you have a reason to use a different symmetry number we print 
out the resulting rotational entropy values for sn=1,12 :
 --------------------------------------------------------
|  sn= 1 | S(rot)=       0.01374389 Eh      8.62 kcal/mol|
|  sn= 2 | S(rot)=       0.01308943 Eh      8.21 kcal/mol|
|  sn= 3 | S(rot)=       0.01270660 Eh      7.97 kcal/mol|
|  sn= 4 | S(rot)=       0.01243497 Eh      7.80 kcal/mol|
|  sn= 5 | S(rot)=       0.01222428 Eh      7.67 kcal/mol|
|  sn= 6 | S(rot)=       0.01205214 Eh      7.56 kcal/mol|
|  sn= 7 | S(rot)=       0.01190659 Eh      7.47 kcal/mol|
|  sn= 8 | S(rot)=       0.01178052 Eh      7.39 kcal/mol|
|  sn= 9 | S(rot)=       0.01166931 Eh      7.32 kcal/mol|
|  sn=10 | S(rot)=       0.01156983 Eh      7.26 kcal/mol|
|  sn=11 | S(rot)=       0.01147984 Eh      7.20 kcal/mol|
|  sn=12 | S(rot)=       0.01139768 Eh      7.15 kcal/mol|
 --------------------------------------------------------


-------------------
GIBBS FREE ENERGY
-------------------

The Gibbs free energy is G = H - T*S

Total enthalpy                    ...   -385.62250280 Eh 
Total entropy correction          ...     -0.03833949 Eh    -24.06 kcal/mol
-----------------------------------------------------------------------
Final Gibbs free energy         ...   -385.66084229 Eh

For completeness - the Gibbs free energy minus the electronic energy
G-E(el)                           ...      0.11627139 Eh     72.96 kcal/mol

[1659618719.089066] [c302-011:2330259:0]        rc_iface.c:506  UCX  WARN  using maximal value for RETRY_COUNT (7) instead of 40
[1659618719.089543] [c302-011:2330263:0]        rc_iface.c:506  UCX  WARN  using maximal value for RETRY_COUNT (7) instead of 40
[1659618719.089974] [c302-011:2330256:0]        rc_iface.c:506  UCX  WARN  using maximal value for RETRY_COUNT (7) instead of 40
[1659618719.090068] [c302-011:2330260:0]        rc_iface.c:506  UCX  WARN  using maximal value for RETRY_COUNT (7) instead of 40
[1659618719.090255] [c302-011:2330255:0]        rc_iface.c:506  UCX  WARN  using maximal value for RETRY_COUNT (7) instead of 40
[1659618719.090372] [c302-011:2330257:0]        rc_iface.c:506  UCX  WARN  using maximal value for RETRY_COUNT (7) instead of 40
[1659618719.091152] [c302-011:2330258:0]        rc_iface.c:506  UCX  WARN  using maximal value for RETRY_COUNT (7) instead of 40
[1659618719.091876] [c302-011:2330254:0]        rc_iface.c:506  UCX  WARN  using maximal value for RETRY_COUNT (7) instead of 40
[1659618719.092472] [c302-011:2330262:0]        rc_iface.c:506  UCX  WARN  using maximal value for RETRY_COUNT (7) instead of 40
[1659618719.092537] [c302-011:2330261:0]        rc_iface.c:506  UCX  WARN  using maximal value for RETRY_COUNT (7) instead of 40
[1659618719.094442] [c302-011:2330259:0]        rc_iface.c:506  UCX  WARN  using maximal value for RETRY_COUNT (7) instead of 40
[1659618719.095328] [c302-011:2330263:0]        rc_iface.c:506  UCX  WARN  using maximal value for RETRY_COUNT (7) instead of 40
[1659618719.095543] [c302-011:2330257:0]        rc_iface.c:506  UCX  WARN  using maximal value for RETRY_COUNT (7) instead of 40
[1659618719.095606] [c302-011:2330255:0]        rc_iface.c:506  UCX  WARN  using maximal value for RETRY_COUNT (7) instead of 40
[1659618719.095868] [c302-011:2330260:0]        rc_iface.c:506  UCX  WARN  using maximal value for RETRY_COUNT (7) instead of 40
[1659618719.095790] [c302-011:2330256:0]        rc_iface.c:506  UCX  WARN  using maximal value for RETRY_COUNT (7) instead of 40
[1659618719.096041] [c302-011:2330258:0]        rc_iface.c:506  UCX  WARN  using maximal value for RETRY_COUNT (7) instead of 40
[1659618719.097070] [c302-011:2330261:0]        rc_iface.c:506  UCX  WARN  using maximal value for RETRY_COUNT (7) instead of 40
[1659618719.097289] [c302-011:2330262:0]        rc_iface.c:506  UCX  WARN  using maximal value for RETRY_COUNT (7) instead of 40
[1659618719.097601] [c302-011:2330254:0]        rc_iface.c:506  UCX  WARN  using maximal value for RETRY_COUNT (7) instead of 40

Timings for individual modules:

Sum of individual times         ...      504.282 sec (=   8.405 min)
GTO integral calculation        ...       17.713 sec (=   0.295 min)   3.5 %
SCF iterations                  ...      192.032 sec (=   3.201 min)  38.1 %
SCF Gradient evaluation         ...       37.405 sec (=   0.623 min)   7.4 %
Geometry relaxation             ...        0.504 sec (=   0.008 min)   0.1 %
Analytical frequency calculation...      256.629 sec (=   4.277 min)  50.9 %
                             ****ORCA TERMINATED NORMALLY****
TOTAL RUN TIME: 0 days 18 hours 21 minutes 12 seconds 945 msec
