
                                 *****************
                                 * O   R   C   A *
                                 *****************

                                            #,                                       
                                            ###                                      
                                            ####                                     
                                            #####                                    
                                            ######                                   
                                           ########,                                 
                                     ,,################,,,,,                         
                               ,,#################################,,                 
                          ,,##########################################,,             
                       ,#########################################, ''#####,          
                    ,#############################################,,   '####,        
                  ,##################################################,,,,####,       
                ,###########''''           ''''###############################       
              ,#####''   ,,,,##########,,,,          '''####'''          '####       
            ,##' ,,,,###########################,,,                        '##       
           ' ,,###''''                  '''############,,,                           
         ,,##''                                '''############,,,,        ,,,,,,###''
      ,#''                                            '''#######################'''  
     '                                                          ''''####''''         
             ,#######,   #######,   ,#######,      ##                                
            ,#'     '#,  ##    ##  ,#'     '#,    #''#        ######   ,####,        
            ##       ##  ##   ,#'  ##            #'  '#       #        #'  '#        
            ##       ##  #######   ##           ,######,      #####,   #    #        
            '#,     ,#'  ##    ##  '#,     ,#' ,#      #,         ##   #,  ,#        
             '#######'   ##     ##  '#######'  #'      '#     #####' # '####'        



                  #######################################################
                  #                        -***-                        #
                  #          Department of theory and spectroscopy      #
                  #    Directorship and core code : Frank Neese         #
                  #        Max Planck Institute fuer Kohlenforschung    #
                  #                Kaiser Wilhelm Platz 1               #
                  #                 D-45470 Muelheim/Ruhr               #
                  #                      Germany                        #
                  #                                                     #
                  #                  All rights reserved                #
                  #                        -***-                        #
                  #######################################################


                         Program Version 5.0.3 -  RELEASE  -


 With contributions from (in alphabetic order):
   Daniel Aravena         : Magnetic Suceptibility
   Michael Atanasov       : Ab Initio Ligand Field Theory (pilot matlab implementation)
   Alexander A. Auer      : GIAO ZORA, VPT2 properties, NMR spectrum
   Ute Becker             : Parallelization
   Giovanni Bistoni       : ED, misc. LED, open-shell LED, HFLD
   Martin Brehm           : Molecular dynamics
   Dmytro Bykov           : SCF Hessian
   Vijay G. Chilkuri      : MRCI spin determinant printing, contributions to CSF-ICE
   Dipayan Datta          : RHF DLPNO-CCSD density
   Achintya Kumar Dutta   : EOM-CC, STEOM-CC
   Dmitry Ganyushin       : Spin-Orbit,Spin-Spin,Magnetic field MRCI
   Miquel Garcia          : C-PCM and meta-GGA Hessian, CC/C-PCM, Gaussian charge scheme
   Yang Guo               : DLPNO-NEVPT2, F12-NEVPT2, CIM, IAO-localization
   Andreas Hansen         : Spin unrestricted coupled pair/coupled cluster methods
   Benjamin Helmich-Paris : MC-RPA, TRAH-SCF, COSX integrals
   Lee Huntington         : MR-EOM, pCC
   Robert Izsak           : Overlap fitted RIJCOSX, COSX-SCS-MP3, EOM
   Marcus Kettner         : VPT2
   Christian Kollmar      : KDIIS, OOCD, Brueckner-CCSD(T), CCSD density, CASPT2, CASPT2-K
   Simone Kossmann        : Meta GGA functionals, TD-DFT gradient, OOMP2, MP2 Hessian
   Martin Krupicka        : Initial AUTO-CI
   Lucas Lang             : DCDCAS
   Marvin Lechner         : AUTO-CI (C++ implementation), FIC-MRCC
   Dagmar Lenk            : GEPOL surface, SMD
   Dimitrios Liakos       : Extrapolation schemes; Compound Job, initial MDCI parallelization
   Dimitrios Manganas     : Further ROCIS development; embedding schemes
   Dimitrios Pantazis     : SARC Basis sets
   Anastasios Papadopoulos: AUTO-CI, single reference methods and gradients
   Taras Petrenko         : DFT Hessian,TD-DFT gradient, ASA, ECA, R-Raman, ABS, FL, XAS/XES, NRVS
   Peter Pinski           : DLPNO-MP2, DLPNO-MP2 Gradient
   Christoph Reimann      : Effective Core Potentials
   Marius Retegan         : Local ZFS, SOC
   Christoph Riplinger    : Optimizer, TS searches, QM/MM, DLPNO-CCSD(T), (RO)-DLPNO pert. Triples
   Tobias Risthaus        : Range-separated hybrids, TD-DFT gradient, RPA, STAB
   Michael Roemelt        : Original ROCIS implementation
   Masaaki Saitow         : Open-shell DLPNO-CCSD energy and density
   Barbara Sandhoefer     : DKH picture change effects
   Avijit Sen             : IP-ROCIS
   Kantharuban Sivalingam : CASSCF convergence, NEVPT2, FIC-MRCI
   Bernardo de Souza      : ESD, SOC TD-DFT
   Georgi Stoychev        : AutoAux, RI-MP2 NMR, DLPNO-MP2 response
   Willem Van den Heuvel  : Paramagnetic NMR
   Boris Wezisla          : Elementary symmetry handling
   Frank Wennmohs         : Technical directorship


 We gratefully acknowledge several colleagues who have allowed us to
 interface, adapt or use parts of their codes:
   Stefan Grimme, W. Hujo, H. Kruse, P. Pracht,  : VdW corrections, initial TS optimization,
                  C. Bannwarth, S. Ehlert          DFT functionals, gCP, sTDA/sTD-DF
   Ed Valeev, F. Pavosevic, A. Kumar             : LibInt (2-el integral package), F12 methods
   Garnet Chan, S. Sharma, J. Yang, R. Olivares  : DMRG
   Ulf Ekstrom                                   : XCFun DFT Library
   Mihaly Kallay                                 : mrcc  (arbitrary order and MRCC methods)
   Jiri Pittner, Ondrej Demel                    : Mk-CCSD
   Frank Weinhold                                : gennbo (NPA and NBO analysis)
   Christopher J. Cramer and Donald G. Truhlar   : smd solvation model
   Lars Goerigk                                  : TD-DFT with DH, B97 family of functionals
   V. Asgeirsson, H. Jonsson                     : NEB implementation
   FAccTs GmbH                                   : IRC, NEB, NEB-TS, DLPNO-Multilevel, CI-OPT
                                                   MM, QMMM, 2- and 3-layer-ONIOM, Crystal-QMMM,
                                                   LR-CPCM, SF, NACMEs, symmetry and pop. for TD-DFT,
                                                   nearIR, NL-DFT gradient (VV10), updates on ESD,
                                                   ML-optimized integration grids
   S Lehtola, MJT Oliveira, MAL Marques          : LibXC Library
   Liviu Ungur et al                             : ANISO software


 Your calculation uses the libint2 library for the computation of 2-el integrals
 For citations please refer to: http://libint.valeyev.net

 Your ORCA version has been built with support for libXC version: 5.1.0
 For citations please refer to: https://tddft.org/programs/libxc/

 This ORCA versions uses:
   CBLAS   interface :  Fast vector & matrix operations
   LAPACKE interface :  Fast linear algebra routines
   SCALAPACK package :  Parallel linear algebra routines
   Shared memory     :  Shared parallel matrices
   BLAS/LAPACK       :  OpenBLAS 0.3.15  USE64BITINT DYNAMIC_ARCH NO_AFFINITY Haswell SINGLE_THREADED
        Core in use  :  Haswell
   Copyright (c) 2011-2014, The OpenBLAS Project


================================================================================

----- Orbital basis set information -----
Your calculation utilizes the basis: def2-SVP
   F. Weigend and R. Ahlrichs, Phys. Chem. Chem. Phys. 7, 3297 (2005).

----- AuxJ basis set information -----
Your calculation utilizes the auxiliary basis: def2/J
   F. Weigend, Phys. Chem. Chem. Phys. 8, 1057 (2006).

----- AuxC basis set information -----
Your calculation utilizes the auxiliary basis: def2-SVP/C
  H-La, Hf-Rn : A. Hellweg, C. Hattig, S. Hofener and W. Klopper, Theor. Chem. Acc. 117, 587 (2007).
        Ce-Lu : J. Chmela and M. E. Harding, Mol. Phys. (2018).

================================================================================
                                        WARNINGS
                       Please study these warnings very carefully!
================================================================================

INFO   : Checking CIS options ...

INFO   : Since TDDFT/CIS Mode == RPA_AOINTS, the TAMMDANCOFF/TDA keyword is ignored. 


WARNING: (CIS/TDDFT): When using ORCA_ESD, CPCMEQ is set by default to TRUE
  ===> : turning on equilibrium dielectric conditions.

WARNING: CIS/ROCIS methods need fully converged wavefunctions
  ===> : Setting SCFConvForced true
         You can overwrite this default with %scf ConvForced false 


INFO   : the flag for use of the SHARK integral package has been found!

================================================================================

----- Orbital basis set information -----
Your calculation utilizes the basis: def2-SVP
   F. Weigend and R. Ahlrichs, Phys. Chem. Chem. Phys. 7, 3297 (2005).

----- AuxJ basis set information -----
Your calculation utilizes the auxiliary basis: def2/J
   F. Weigend, Phys. Chem. Chem. Phys. 8, 1057 (2006).

----- AuxC basis set information -----
Your calculation utilizes the auxiliary basis: def2-SVP/C
  H-La, Hf-Rn : A. Hellweg, C. Hattig, S. Hofener and W. Klopper, Theor. Chem. Acc. 117, 587 (2007).
        Ce-Lu : J. Chmela and M. E. Harding, Mol. Phys. (2018).

================================================================================
                                        WARNINGS
                       Please study these warnings very carefully!
================================================================================

INFO   : Checking CIS options ...

INFO   : Since TDDFT/CIS Mode == RPA_AOINTS, the TAMMDANCOFF/TDA keyword is ignored. 


WARNING: (CIS/TDDFT): When using ORCA_ESD, CPCMEQ is set by default to TRUE
  ===> : turning on equilibrium dielectric conditions.

INFO   : the flag for use of the SHARK integral package has been found!

================================================================================

----- Orbital basis set information -----
Your calculation utilizes the basis: def2-SVP
   F. Weigend and R. Ahlrichs, Phys. Chem. Chem. Phys. 7, 3297 (2005).

----- AuxJ basis set information -----
Your calculation utilizes the auxiliary basis: def2/J
   F. Weigend, Phys. Chem. Chem. Phys. 8, 1057 (2006).

----- AuxC basis set information -----
Your calculation utilizes the auxiliary basis: def2-SVP/C
  H-La, Hf-Rn : A. Hellweg, C. Hattig, S. Hofener and W. Klopper, Theor. Chem. Acc. 117, 587 (2007).
        Ce-Lu : J. Chmela and M. E. Harding, Mol. Phys. (2018).

================================================================================
                                        WARNINGS
                       Please study these warnings very carefully!
================================================================================

INFO   : Checking CIS options ...

INFO   : Since TDDFT/CIS Mode == RPA_AOINTS, the TAMMDANCOFF/TDA keyword is ignored. 


WARNING: (CIS/TDDFT): When using ORCA_ESD, CPCMEQ is set by default to TRUE
  ===> : turning on equilibrium dielectric conditions.

INFO   : the flag for use of the SHARK integral package has been found!

================================================================================
                                       INPUT FILE
================================================================================
NAME = /scratch/dca0099.334889/Phos_dft_naphtalene.inp
|  1> !B3LYP DEF2-SVP DEF2-SVP/C def2/J RIJCOSX TIGHTSCF CPCM(toluene) RI-SOMF(1X) ESD(PHOSP)
|  2> 
|  3> %maxcore  120000
|  4> 
|  5> %TDDFT 
|  6> 	NROOTS 6
|  7> 	TDA FALSE
|  8> 	IROOT 1
|  9> END
| 10> 
| 11> %ESD 
| 12> 	GSHESSIAN "Phos_dft_naphtalene.GS.hess"
| 13> 	TSHESSIAN "Phos_dft_naphtalene.TS.hess"
| 14> 	DOHT TRUE
| 15> 	DELE 22650.19
| 16> END
| 17> 
| 18> * xyz 0 1
| 19>   C   -8.96121784812031      0.24268337776474      0.00033489819780
| 20>   C   -7.59059951968750      0.24371545417717      0.00015198745293
| 21>   C   -6.86693343298993      1.46030211281662      0.00023475747764
| 22>   C   -7.58799559947894      2.69205204792658      0.00050997612007
| 23>   C   -9.00310055342497      2.65617792309838      0.00069280404132
| 24>   C   -9.67467975506609      1.46137108557408      0.00060814266859
| 25>   H   -4.90710891896316      0.55933209328366     -0.00016767341217
| 26>   H   -9.50425962457938     -0.69409088109167      0.00026687164944
| 27>   H   -7.04027568972576     -0.68980140749936     -0.00005544925225
| 28>   C   -5.45183741157070      1.49616229462644      0.00005614405431
| 29>   C   -6.86437066397562      3.90865807672096      0.00059715121121
| 30>   H   -9.54784882567221      3.59299899012176      0.00091076313657
| 31>   H   -10.75737868171900      1.44626581403603      0.00074783188745
| 32>   C   -5.49375285629476      3.90967522182525      0.00042517705822
| 33>   C   -4.78028626336214      2.69100004727155      0.00015218718405
| 34>   H   -7.41470937199301      4.84216327382740      0.00079951152285
| 35>   H   -4.95071130646203      4.84645090655905      0.00050815101568
| 36>   H   -3.69758703691443      2.70613312896136      0.00001676798628
| 37> *
| 38> 
| 39> $NEW_JOB
| 40> 
| 41> !B3LYP DEF2-SVP DEF2-SVP/C def2/J RIJCOSX TIGHTSCF CPCM(toluene) RI-SOMF(1X) ESD(PHOSP)
| 42> 
| 43> %maxcore  120000
| 44> 
| 45> %TDDFT 
| 46> 	NROOTS 6
| 47> 	TDA FALSE
| 48> 	IROOT 2
| 49> END
| 50> 
| 51> %ESD 
| 52> 	GSHESSIAN "Phos_dft_naphtalene.GS.hess"
| 53> 	TSHESSIAN "Phos_dft_naphtalene.TS.hess"
| 54> 	DOHT TRUE
| 55> 	DELE 22650.19
| 56> END
| 57> 
| 58> * xyz 0 1
| 59>   C   -8.96121784812031      0.24268337776474      0.00033489819780
| 60>   C   -7.59059951968750      0.24371545417717      0.00015198745293
| 61>   C   -6.86693343298993      1.46030211281662      0.00023475747764
| 62>   C   -7.58799559947894      2.69205204792658      0.00050997612007
| 63>   C   -9.00310055342497      2.65617792309838      0.00069280404132
| 64>   C   -9.67467975506609      1.46137108557408      0.00060814266859
| 65>   H   -4.90710891896316      0.55933209328366     -0.00016767341217
| 66>   H   -9.50425962457938     -0.69409088109167      0.00026687164944
| 67>   H   -7.04027568972576     -0.68980140749936     -0.00005544925225
| 68>   C   -5.45183741157070      1.49616229462644      0.00005614405431
| 69>   C   -6.86437066397562      3.90865807672096      0.00059715121121
| 70>   H   -9.54784882567221      3.59299899012176      0.00091076313657
| 71>   H   -10.75737868171900      1.44626581403603      0.00074783188745
| 72>   C   -5.49375285629476      3.90967522182525      0.00042517705822
| 73>   C   -4.78028626336214      2.69100004727155      0.00015218718405
| 74>   H   -7.41470937199301      4.84216327382740      0.00079951152285
| 75>   H   -4.95071130646203      4.84645090655905      0.00050815101568
| 76>   H   -3.69758703691443      2.70613312896136      0.00001676798628
| 77> *
| 78> 
| 79> $NEW_JOB
| 80> 
| 81> !B3LYP DEF2-SVP DEF2-SVP/C def2/J RIJCOSX TIGHTSCF CPCM(toluene) RI-SOMF(1X) ESD(PHOSP)
| 82> 
| 83> %maxcore  120000
| 84> 
| 85> %TDDFT 
| 86> 	NROOTS 6
| 87> 	TDA FALSE
| 88> 	IROOT 3
| 89> END
| 90> 
| 91> %ESD 
| 92> 	GSHESSIAN "Phos_dft_naphtalene.GS.hess"
| 93> 	TSHESSIAN "Phos_dft_naphtalene.TS.hess"
| 94> 	DOHT TRUE
| 95> 	DELE 22650.19
| 96> END
| 97> 
| 98> * xyz 0 1
| 99>   C   -8.96121784812031      0.24268337776474      0.00033489819780
|100>   C   -7.59059951968750      0.24371545417717      0.00015198745293
|101>   C   -6.86693343298993      1.46030211281662      0.00023475747764
|102>   C   -7.58799559947894      2.69205204792658      0.00050997612007
|103>   C   -9.00310055342497      2.65617792309838      0.00069280404132
|104>   C   -9.67467975506609      1.46137108557408      0.00060814266859
|105>   H   -4.90710891896316      0.55933209328366     -0.00016767341217
|106>   H   -9.50425962457938     -0.69409088109167      0.00026687164944
|107>   H   -7.04027568972576     -0.68980140749936     -0.00005544925225
|108>   C   -5.45183741157070      1.49616229462644      0.00005614405431
|109>   C   -6.86437066397562      3.90865807672096      0.00059715121121
|110>   H   -9.54784882567221      3.59299899012176      0.00091076313657
|111>   H   -10.75737868171900      1.44626581403603      0.00074783188745
|112>   C   -5.49375285629476      3.90967522182525      0.00042517705822
|113>   C   -4.78028626336214      2.69100004727155      0.00015218718405
|114>   H   -7.41470937199301      4.84216327382740      0.00079951152285
|115>   H   -4.95071130646203      4.84645090655905      0.00050815101568
|116>   H   -3.69758703691443      2.70613312896136      0.00001676798628
|117> *
|118> 
|119> 
|120> 
|121> 
|122> 
|123>                          ****END OF INPUT****
================================================================================


                 $$$$$$$$$$$$$$$$$$$$$$$$$$$$$$$$$$$$$$$$$$$$$$ 
                 $ THERE ARE  3 JOBS TO BE PROCESSED THIS RUN $
                 $$$$$$$$$$$$$$$$$$$$$$$$$$$$$$$$$$$$$$$$$$$$$$ 




                 $$$$$$$$$$$$$$$$  JOB NUMBER  1 $$$$$$$$$$$$$$


                       ****************************
                       * Single Point Calculation *
                       ****************************

The geometry is being displaced to its center of mass!
---------------------------------
CARTESIAN COORDINATES (ANGSTROEM)
---------------------------------
  C     -1.733740   -1.833496   -0.000042
  C     -0.363122   -1.832464   -0.000224
  C      0.360544   -0.615878   -0.000142
  C     -0.360518    0.615872    0.000134
  C     -1.775623    0.579998    0.000316
  C     -2.447202   -0.614809    0.000232
  H      2.320369   -1.516848   -0.000544
  H     -2.276782   -2.770271   -0.000110
  H      0.187202   -2.765981   -0.000432
  C      1.775640   -0.580018   -0.000320
  C      0.363107    1.832478    0.000221
  H     -2.320371    1.516819    0.000534
  H     -3.529901   -0.629914    0.000371
  C      1.733725    1.833495    0.000049
  C      2.447192    0.614820   -0.000224
  H     -0.187232    2.765983    0.000423
  H      2.276767    2.770271    0.000132
  H      3.529891    0.629953   -0.000360

----------------------------
CARTESIAN COORDINATES (A.U.)
----------------------------
  NO LB      ZA    FRAG     MASS         X           Y           Z
   0 C     6.0000    0    12.011   -3.276294   -3.464806   -0.000079
   1 C     6.0000    0    12.011   -0.686200   -3.462856   -0.000424
   2 C     6.0000    0    12.011    0.681330   -1.163840   -0.000268
   3 C     6.0000    0    12.011   -0.681280    1.163830    0.000252
   4 C     6.0000    0    12.011   -3.355441    1.096037    0.000598
   5 C     6.0000    0    12.011   -4.624541   -1.161820    0.000438
   6 H     1.0000    0     1.008    4.384862   -2.866427   -0.001028
   7 H     1.0000    0     1.008   -4.302494   -5.235053   -0.000207
   8 H     1.0000    0     1.008    0.353761   -5.226947   -0.000816
   9 C     6.0000    0    12.011    3.355474   -1.096074   -0.000605
  10 C     6.0000    0    12.011    0.686173    3.462882    0.000417
  11 H     1.0000    0     1.008   -4.384866    2.866373    0.001010
  12 H     1.0000    0     1.008   -6.670546   -1.190365    0.000702
  13 C     6.0000    0    12.011    3.276265    3.464804    0.000092
  14 C     6.0000    0    12.011    4.624522    1.161842   -0.000424
  15 H     1.0000    0     1.008   -0.353816    5.226951    0.000799
  16 H     1.0000    0     1.008    4.302465    5.235054    0.000249
  17 H     1.0000    0     1.008    6.670527    1.190439   -0.000680

--------------------------------
INTERNAL COORDINATES (ANGSTROEM)
--------------------------------
 C      0   0   0     0.000000000000     0.00000000     0.00000000
 C      1   0   0     1.370618729215     0.00000000     0.00000000
 C      2   1   0     1.415547847961   120.78872804     0.00000000
 C      3   2   1     1.427283653073   118.90985599     0.00000000
 C      4   3   2     1.415559612641   118.89237357     0.00000000
 C      5   4   3     1.370613734879   120.79173451     0.00000000
 H      3   2   1     2.157002379189    96.05640884   180.00020823
 H      1   2   3     1.082792864616   120.14372570   179.99985320
 H      2   1   3     1.083655891826   120.47691903   179.99977039
 C      7   3   2     1.083688150208    35.13457172   180.00086861
 C      4   3   2     1.415543458952   118.91168837   179.99979670
 H      5   4   3     1.083690195232   118.72521347   179.99944983
 H      6   5   4     1.082804301117   120.13885846   180.00012170
 C     11   4   3     1.370618195885   120.78627157     0.00000000
 C     10   7   3     1.370626940137   120.48585441   180.00054876
 H     11   4   3     1.083653398240   118.73519446   179.99959498
 H     14  11   4     1.082793985594   120.14305325   180.00086116
 H     15  10   7     1.082804988652   120.13867409     0.00000000

---------------------------
INTERNAL COORDINATES (A.U.)
---------------------------
 C      0   0   0     0.000000000000     0.00000000     0.00000000
 C      1   0   0     2.590094032239     0.00000000     0.00000000
 C      2   1   0     2.674997762108   120.78872804     0.00000000
 C      3   2   1     2.697175219731   118.90985599     0.00000000
 C      4   3   2     2.675019994131   118.89237357     0.00000000
 C      5   4   3     2.590084594312   120.79173451     0.00000000
 H      3   2   1     4.076143766884    96.05640884   180.00020823
 H      1   2   3     2.046181973888   120.14372570   179.99985320
 H      2   1   3     2.047812858960   120.47691903   179.99977039
 C      7   3   2     2.047873818468    35.13457172   180.00086861
 C      4   3   2     2.674989468082   118.91168837   179.99979670
 H      5   4   3     2.047877683004   118.72521347   179.99944983
 H      6   5   4     2.046203585742   120.13885846   180.00012170
 C     11   4   3     2.590093024392   120.78627157     0.00000000
 C     10   7   3     2.590109548634   120.48585441   180.00054876
 H     11   4   3     2.047808146766   118.73519446   179.99959498
 H     14  11   4     2.046184092229   120.14305325   180.00086116
 H     15  10   7     2.046204884997   120.13867409     0.00000000

---------------------
BASIS SET INFORMATION
---------------------
There are 2 groups of distinct atoms

 Group   1 Type C   : 7s4p1d contracted to 3s2p1d pattern {511/31/1}
 Group   2 Type H   : 4s1p contracted to 2s1p pattern {31/1}

Atom   0C    basis set group =>   1
Atom   1C    basis set group =>   1
Atom   2C    basis set group =>   1
Atom   3C    basis set group =>   1
Atom   4C    basis set group =>   1
Atom   5C    basis set group =>   1
Atom   6H    basis set group =>   2
Atom   7H    basis set group =>   2
Atom   8H    basis set group =>   2
Atom   9C    basis set group =>   1
Atom  10C    basis set group =>   1
Atom  11H    basis set group =>   2
Atom  12H    basis set group =>   2
Atom  13C    basis set group =>   1
Atom  14C    basis set group =>   1
Atom  15H    basis set group =>   2
Atom  16H    basis set group =>   2
Atom  17H    basis set group =>   2
---------------------------------
AUXILIARY/J BASIS SET INFORMATION
---------------------------------
There are 2 groups of distinct atoms

 Group   1 Type C   : 12s5p4d2f1g contracted to 6s4p3d1f1g pattern {711111/2111/211/2/1}
 Group   2 Type H   : 5s2p1d contracted to 3s1p1d pattern {311/2/1}

Atom   0C    basis set group =>   1
Atom   1C    basis set group =>   1
Atom   2C    basis set group =>   1
Atom   3C    basis set group =>   1
Atom   4C    basis set group =>   1
Atom   5C    basis set group =>   1
Atom   6H    basis set group =>   2
Atom   7H    basis set group =>   2
Atom   8H    basis set group =>   2
Atom   9C    basis set group =>   1
Atom  10C    basis set group =>   1
Atom  11H    basis set group =>   2
Atom  12H    basis set group =>   2
Atom  13C    basis set group =>   1
Atom  14C    basis set group =>   1
Atom  15H    basis set group =>   2
Atom  16H    basis set group =>   2
Atom  17H    basis set group =>   2
---------------------------------
AUXILIARY/C BASIS SET INFORMATION
---------------------------------
There are 2 groups of distinct atoms

 Group   1 Type C   : 8s6p5d3f contracted to 6s5p4d1f pattern {311111/21111/2111/3}
 Group   2 Type H   : 4s3p2d contracted to 3s2p1d pattern {211/21/2}

Atom   0C    basis set group =>   1
Atom   1C    basis set group =>   1
Atom   2C    basis set group =>   1
Atom   3C    basis set group =>   1
Atom   4C    basis set group =>   1
Atom   5C    basis set group =>   1
Atom   6H    basis set group =>   2
Atom   7H    basis set group =>   2
Atom   8H    basis set group =>   2
Atom   9C    basis set group =>   1
Atom  10C    basis set group =>   1
Atom  11H    basis set group =>   2
Atom  12H    basis set group =>   2
Atom  13C    basis set group =>   1
Atom  14C    basis set group =>   1
Atom  15H    basis set group =>   2
Atom  16H    basis set group =>   2
Atom  17H    basis set group =>   2
------------------------------------------------------------------------------
                           ORCA GTO INTEGRAL CALCULATION
                           -- RI-GTO INTEGRALS CHOSEN --
------------------------------------------------------------------------------
------------------------------------------------------------------------------
                   ___                                                        
                  /   \      - P O W E R E D   B Y -                         
                 /     \                                                     
                 |  |  |   _    _      __       _____    __    __             
                 |  |  |  | |  | |    /  \     |  _  \  |  |  /  |          
                  \  \/   | |  | |   /    \    | | | |  |  | /  /          
                 / \  \   | |__| |  /  /\  \   | |_| |  |  |/  /          
                |  |  |   |  __  | /  /__\  \  |    /   |      \           
                |  |  |   | |  | | |   __   |  |    \   |  |\   \          
                \     /   | |  | | |  |  |  |  | |\  \  |  | \   \       
                 \___/    |_|  |_| |__|  |__|  |_| \__\ |__|  \__/        
                                                                              
                      - O R C A' S   B I G   F R I E N D -                    
                                      &                                       
                       - I N T E G R A L  F E E D E R -                       
                                                                              
 v1 FN, 2020, v2 2021                                                         
------------------------------------------------------------------------------


Reading SHARK input file /scratch/dca0099.334889/Phos_dft_naphtalene.SHARKINP.tmp ... ok
----------------------
SHARK INTEGRAL PACKAGE
----------------------

Number of atoms                             ...     18
Number of basis functions                   ...    180
Number of shells                            ...     84
Maximum angular momentum                    ...      2
Integral batch strategy                     ... SHARK/LIBINT Hybrid
RI-J (if used) integral strategy            ... SPLIT-RIJ (Revised 2003 algorithm where possible)
Printlevel                                  ...      1
Contraction scheme used                     ... SEGMENTED contraction
Coulomb Range Separation                    ... NOT USED
Exchange Range Separation                   ... NOT USED
Finite Nucleus Model                        ... NOT USED
Auxiliary Coulomb fitting basis             ... AVAILABLE
   # of basis functions in Aux-J            ...    578
   # of shells in Aux-J                     ...    190
   Maximum angular momentum in Aux-J        ...      4
Auxiliary J/K fitting basis                 ... NOT available
Auxiliary Correlation fitting basis         ... AVAILABLE
   # of basis functions in Aux-C            ...    592
   # of shells in Aux-C                     ...    208
   Maximum angular momentum in Aux-C        ...      3
Auxiliary 'external' fitting basis          ... NOT available
Integral threshold                          ...     2.500000e-11
Primitive cut-off                           ...     2.500000e-12
Primitive pair pre-selection threshold      ...     2.500000e-12

Calculating pre-screening integrals         ... done (  0.1 sec) Dimension = 84
Organizing shell pair data                  ... done (  0.0 sec)
Shell pair information
Total number of shell pairs                 ...      3570
Shell pairs after pre-screening             ...      3320
Total number of primitive shell pairs       ...     13034
Primitive shell pairs kept                  ...      8781
          la=0 lb=0:   1003 shell pairs
          la=1 lb=0:   1200 shell pairs
          la=1 lb=1:    378 shell pairs
          la=2 lb=0:    424 shell pairs
          la=2 lb=1:    264 shell pairs
          la=2 lb=2:     51 shell pairs

Calculating one electron integrals          ... done (  0.0 sec)
Calculating RI/J V-Matrix + Cholesky decomp.... done (  0.1 sec)
Calculating RI/C V-Matrix + Cholesky decomp.... done (  0.0 sec)
Calculating Nuclear repulsion               ... done (  0.0 sec) ENN=    459.060186556575 Eh

SHARK setup successfully completed in   0.7 seconds

Maximum memory used throughout the entire GTOINT-calculation: 27.0 MB
-------------------------------------------------------------------------------
                                 ORCA SCF
-------------------------------------------------------------------------------

------------
SCF SETTINGS
------------
Hamiltonian:
 Density Functional     Method          .... DFT(GTOs)
 Exchange Functional    Exchange        .... B88
   X-Alpha parameter    XAlpha          ....  0.666667
   Becke's b parameter  XBeta           ....  0.004200
 Correlation Functional Correlation     .... LYP
 LDA part of GGA corr.  LDAOpt          .... VWN-5
 Gradients option       PostSCFGGA      .... off
 Hybrid DFT is turned on
   Fraction HF Exchange ScalHFX         ....  0.200000
   Scaling of DF-GGA-X  ScalDFX         ....  0.720000
   Scaling of DF-GGA-C  ScalDFC         ....  0.810000
   Scaling of DF-LDA-C  ScalLDAC        ....  1.000000
   Perturbative correction              ....  0.000000
   Density functional embedding theory  .... OFF
   NL short-range parameter             ....  4.800000
 RI-approximation to the Coulomb term is turned on
   Number of AuxJ basis functions       .... 578
   RIJ-COSX (HFX calculated with COS-X)).... on


General Settings:
 Integral files         IntName         .... /scratch/dca0099.334889/Phos_dft_naphtalene
 Hartree-Fock type      HFTyp           .... RHF
 Total Charge           Charge          ....    0
 Multiplicity           Mult            ....    1
 Number of Electrons    NEL             ....   68
 Basis Dimension        Dim             ....  180
 Nuclear Repulsion      ENuc            ....    459.0601865566 Eh

Convergence Acceleration:
 DIIS                   CNVDIIS         .... on
   Start iteration      DIISMaxIt       ....    12
   Startup error        DIISStart       ....  0.200000
   # of expansion vecs  DIISMaxEq       ....     5
   Bias factor          DIISBfac        ....   1.050
   Max. coefficient     DIISMaxC        ....  10.000
 Trust-Rad. Augm. Hess. CNVTRAH         .... auto
   Auto Start mean grad. ratio tolernc. ....  1.125000
   Auto Start start iteration           ....    20
   Auto Start num. interpolation iter.  ....    10
   Max. Number of Micro iterations      ....    16
   Max. Number of Macro iterations      .... Maxiter - #DIIS iter
   Number of Davidson start vectors     ....     2
   Converg. threshold I  (grad. norm)   ....   1.000e-05
   Converg. threshold II (energy diff.) ....   1.000e-08
   Grad. Scal. Fac. for Micro threshold ....   0.100
   Minimum threshold for Micro iter.    ....   0.010
   NR start threshold (gradient norm)   ....   0.001
   Initial trust radius                 ....   0.400
   Minimum AH scaling param. (alpha)    ....   1.000
   Maximum AH scaling param. (alpha)    .... 1000.000
   Orbital update algorithm             .... Taylor
   White noise on init. David. guess    .... on
   Maximum white noise                  ....   0.010
   Quad. conv. algorithm                .... NR
 SOSCF                  CNVSOSCF        .... on
   Start iteration      SOSCFMaxIt      ....   150
   Startup grad/error   SOSCFStart      ....  0.003300
 Level Shifting         CNVShift        .... on
   Level shift para.    LevelShift      ....    0.2500
   Turn off err/grad.   ShiftErr        ....    0.0010
 Zerner damping         CNVZerner       .... off
 Static damping         CNVDamp         .... on
   Fraction old density DampFac         ....    0.7000
   Max. Damping (<1)    DampMax         ....    0.9800
   Min. Damping (>=0)   DampMin         ....    0.0000
   Turn off err/grad.   DampErr         ....    0.1000
 Fernandez-Rico         CNVRico         .... off

SCF Procedure:
 Maximum # iterations   MaxIter         ....   125
 SCF integral mode      SCFMode         .... Direct
   Integral package                     .... SHARK and LIBINT hybrid scheme
 Reset frequency        DirectResetFreq ....    20
 Integral Threshold     Thresh          ....  2.500e-11 Eh
 Primitive CutOff       TCut            ....  2.500e-12 Eh

Convergence Tolerance:
 Convergence Check Mode ConvCheckMode   .... Total+1el-Energy
 Convergence forced     ConvForced      .... 1
 Energy Change          TolE            ....  1.000e-08 Eh
 1-El. energy change                    ....  1.000e-05 Eh
 Orbital Gradient       TolG            ....  1.000e-05
 Orbital Rotation angle TolX            ....  1.000e-05
 DIIS Error             TolErr          ....  5.000e-07


Diagonalization of the overlap matrix:
Smallest eigenvalue                        ... 2.653e-04
Time for diagonalization                   ...    0.049 sec
Threshold for overlap eigenvalues          ... 1.000e-08
Number of eigenvalues below threshold      ... 0
Time for construction of square roots      ...    0.004 sec
Total time needed                          ...    0.053 sec

Time for model grid setup =    0.617 sec

------------------------------
INITIAL GUESS: MODEL POTENTIAL
------------------------------
Loading Hartree-Fock densities                     ... done
Calculating cut-offs                               ... done
Initializing the effective Hamiltonian             ... done
Setting up the integral package (SHARK)            ... done
Starting the Coulomb interaction                   ... done (   0.3 sec)
Reading the grid                                   ... done
Mapping shells                                     ... done
Starting the XC term evaluation                    ... done (   0.4 sec)
  promolecular density results
     # of electrons  =     67.995182938
     EX              =    -53.804371454
     EC              =     -2.265510820
     EX+EC           =    -56.069882274
Transforming the Hamiltonian                       ... done (   0.0 sec)
Diagonalizing the Hamiltonian                      ... done (   0.0 sec)
Back transforming the eigenvectors                 ... done (   0.0 sec)
Now organizing SCF variables                       ... done
                      ------------------
                      INITIAL GUESS DONE (   1.3 sec)
                      ------------------
-------------------
DFT GRID GENERATION
-------------------

General Integration Accuracy     IntAcc      ... 4.388
Radial Grid Type                 RadialGrid  ... OptM3 with GC (2021)
Angular Grid (max. ang.)         AngularGrid ... 4 (Lebedev-302)
Angular grid pruning method      GridPruning ... 4 (adaptive)
Weight generation scheme         WeightScheme... Becke
Basis function cutoff            BFCut       ... 1.0000e-11
Integration weight cutoff        WCut        ... 1.0000e-14
Angular grids for H and He will be reduced by one unit
Partially contracted basis set               ... off
Rotationally invariant grid construction     ... off

Total number of grid points                  ...    85584
Total number of batches                      ...     1350
Average number of points per batch           ...       63
Average number of grid points per atom       ...     4755
Time for grid setup =    1.142 sec

--------------------
COSX GRID GENERATION
--------------------

GRIDX 1
-------
General Integration Accuracy     IntAcc      ... 3.816
Radial Grid Type                 RadialGrid  ... OptM3 with GC (2021)
Angular Grid (max. ang.)         AngularGrid ... 1 (Lebedev-50)
Angular grid pruning method      GridPruning ... 4 (adaptive)
Weight generation scheme         WeightScheme... Becke
Basis function cutoff            BFCut       ... 1.0000e-11
Integration weight cutoff        WCut        ... 1.0000e-14
Angular grids for H and He will be reduced by one unit
Partially contracted basis set               ... on
Rotationally invariant grid construction     ... off

Total number of grid points                  ...    10956
Total number of batches                      ...      176
Average number of points per batch           ...       62
Average number of grid points per atom       ...      609
UseSFitting                                  ... on

GRIDX 2
-------
General Integration Accuracy     IntAcc      ... 4.020
Radial Grid Type                 RadialGrid  ... OptM3 with GC (2021)
Angular Grid (max. ang.)         AngularGrid ... 2 (Lebedev-110)
Angular grid pruning method      GridPruning ... 4 (adaptive)
Weight generation scheme         WeightScheme... Becke
Basis function cutoff            BFCut       ... 1.0000e-11
Integration weight cutoff        WCut        ... 1.0000e-14
Angular grids for H and He will be reduced by one unit
Partially contracted basis set               ... on
Rotationally invariant grid construction     ... off

Total number of grid points                  ...    23850
Total number of batches                      ...      384
Average number of points per batch           ...       62
Average number of grid points per atom       ...     1325
UseSFitting                                  ... on

GRIDX 3
-------
General Integration Accuracy     IntAcc      ... 4.338
Radial Grid Type                 RadialGrid  ... OptM3 with GC (2021)
Angular Grid (max. ang.)         AngularGrid ... 3 (Lebedev-194)
Angular grid pruning method      GridPruning ... 4 (adaptive)
Weight generation scheme         WeightScheme... Becke
Basis function cutoff            BFCut       ... 1.0000e-11
Integration weight cutoff        WCut        ... 1.0000e-14
Angular grids for H and He will be reduced by one unit
Partially contracted basis set               ... on
Rotationally invariant grid construction     ... off

Total number of grid points                  ...    52490
Total number of batches                      ...      830
Average number of points per batch           ...       63
Average number of grid points per atom       ...     2916
UseSFitting                                  ... on

Time for X-Grid setup             =    1.163 sec


--------------------
CPCM SOLVATION MODEL
--------------------
CPCM parameters:
  Epsilon                                         ...       2.4000
  Refrac                                          ...       1.4970
  Rsolv                                           ...       1.3000
  Surface type                                    ... GAUSSIAN VDW
  Epsilon function type                           ...         CPCM
Radii:
 Radius for C  used is    3.8550 Bohr (=   2.0400 Ang.)
 Radius for H  used is    2.4944 Bohr (=   1.3200 Ang.)
Calculating surface                               ...        done! (  0.0s)
GEPOL surface points                              ...          996
GEPOL Volume                                      ...    1144.6715
GEPOL Surface-area                                ...     615.5680
Calculating surface distance matrix               ...        done! (  0.0s)
Performing Cholesky decomposition & store         ...        done! (  0.0s)
Overall time for CPCM initialization              ...                 0.0s
--------------
SCF ITERATIONS
--------------
ITER       Energy         Delta-E        Max-DP      RMS-DP      [F,P]     Damp
               ***  Starting incremental Fock matrix formation  ***
  0   -385.1808853978   0.000000000000 0.05009546  0.00259013  0.1139149 0.7000
  1   -385.2624858794  -0.081600481594 0.03424711  0.00181635  0.0618522 0.7000
                               ***Turning on DIIS***
  2   -385.3013854717  -0.038899592339 0.05878080  0.00344554  0.0305628 0.0000
  3   -385.3571904739  -0.055805002232 0.02144536  0.00097221  0.0364453 0.0000
  4   -385.3701352410  -0.012944767107 0.00506738  0.00024328  0.0071282 0.0000
                      *** Initiating the SOSCF procedure ***
                           *** Shutting down DIIS ***
                      *** Re-Reading the Fockian *** 
                      *** Removing any level shift *** 
ITER      Energy       Delta-E        Grad      Rot      Max-DP    RMS-DP
  5   -385.37073821  -0.0006029650  0.000904  0.000904  0.002371  0.000095
               *** Restarting incremental Fock matrix formation ***
  6   -385.37077304  -0.0000348379  0.000398  0.000866  0.001294  0.000064
  7   -385.37077393  -0.0000008905  0.000374  0.000563  0.000597  0.000019
  8   -385.37077730  -0.0000033667  0.000090  0.000213  0.000240  0.000010
  9   -385.37077723   0.0000000732  0.000096  0.000146  0.000120  0.000005
 10   -385.37077748  -0.0000002522  0.000014  0.000036  0.000056  0.000002
 11   -385.37077748   0.0000000032  0.000017  0.000017  0.000029  0.000001
                 **** Energy Check signals convergence ****
              ***Rediagonalizing the Fockian in SOSCF/NRSCF***

               *****************************************************
               *                     SUCCESS                       *
               *           SCF CONVERGED AFTER  12 CYCLES          *
               *****************************************************

Old exchange energy                            =    -10.930370441 Eh
New exchange energy                            =    -10.930407202 Eh
Exchange energy change after final integration =     -0.000036762 Eh
Total energy after final integration           =   -385.370814248 Eh
Final COS-X integration done in                =    10.473 sec

----------------
TOTAL SCF ENERGY
----------------

Total Energy       :         -385.37081425 Eh          -10486.47298 eV

Components:
Nuclear Repulsion  :          459.06018656 Eh           12491.66274 eV
Electronic Energy  :         -844.43100080 Eh          -22978.13572 eV
One Electron Energy:        -1428.52906881 Eh          -38872.25219 eV
Two Electron Energy:          584.09806801 Eh           15894.11647 eV
Max COSX asymmetry :            0.00000300 Eh               0.00008 eV
CPCM Dielectric    :           -0.00302123 Eh              -0.08221 eV

Virial components:
Potential Energy   :         -766.81495419 Eh          -20866.09572 eV
Kinetic Energy     :          381.44413994 Eh           10379.62274 eV
Virial Ratio       :            2.01029423


DFT components:
N(Alpha)           :       34.000049738996 electrons
N(Beta)            :       34.000049738996 electrons
N(Total)           :       68.000099477992 electrons
E(X)               :      -43.379894606013 Eh       
E(C)               :       -2.677944855179 Eh       
E(XC)              :      -46.057839461192 Eh       
DFET-embed. en.    :        0.000000000000 Eh       
CPCM Solvation Model Properties:
Surface-charge          :           -0.02301612
Charge-correction       :            0.00001198 Eh               0.00033 eV
Free-energy (cav+disp)  :  This term is not implemented in the current solvation scheme

---------------
SCF CONVERGENCE
---------------

  Last Energy change         ...   -9.2871e-09  Tolerance :   1.0000e-08
  Last MAX-Density change    ...    2.3453e-15  Tolerance :   1.0000e-07
  Last RMS-Density change    ...    4.8075e-17  Tolerance :   5.0000e-09
  Last Orbital Gradient      ...    8.5426e-07  Tolerance :   1.0000e-05
  Last Orbital Rotation      ...    8.3522e-07  Tolerance :   1.0000e-05

             **** THE GBW FILE WAS UPDATED (/scratch/dca0099.334889/Phos_dft_naphtalene.gbw) ****
             **** DENSITY /scratch/dca0099.334889/Phos_dft_naphtalene.scfp WAS UPDATED ****
             **** ENERGY FILE WAS UPDATED (/scratch/dca0099.334889/Phos_dft_naphtalene.en.tmp) ****
             **** THE GBW FILE WAS UPDATED (/scratch/dca0099.334889/Phos_dft_naphtalene.gbw) ****
             **** DENSITY /scratch/dca0099.334889/Phos_dft_naphtalene.scfp WAS UPDATED ****
----------------
ORBITAL ENERGIES
----------------

  NO   OCC          E(Eh)            E(eV) 
   0   2.0000     -10.191771      -277.3322 
   1   2.0000     -10.191527      -277.3255 
   2   2.0000     -10.185987      -277.1748 
   3   2.0000     -10.185974      -277.1744 
   4   2.0000     -10.185829      -277.1705 
   5   2.0000     -10.185823      -277.1703 
   6   2.0000     -10.185374      -277.1581 
   7   2.0000     -10.185368      -277.1579 
   8   2.0000     -10.185351      -277.1575 
   9   2.0000     -10.185317      -277.1566 
  10   2.0000      -0.868083       -23.6218 
  11   2.0000      -0.814545       -22.1649 
  12   2.0000      -0.765655       -20.8345 
  13   2.0000      -0.732777       -19.9399 
  14   2.0000      -0.710915       -19.3450 
  15   2.0000      -0.619117       -16.8470 
  16   2.0000      -0.605748       -16.4832 
  17   2.0000      -0.591170       -16.0865 
  18   2.0000      -0.513174       -13.9642 
  19   2.0000      -0.503368       -13.6973 
  20   2.0000      -0.493222       -13.4212 
  21   2.0000      -0.443234       -12.0610 
  22   2.0000      -0.441627       -12.0173 
  23   2.0000      -0.417638       -11.3645 
  24   2.0000      -0.416323       -11.3287 
  25   2.0000      -0.397919       -10.8279 
  26   2.0000      -0.394753       -10.7418 
  27   2.0000      -0.368125       -10.0172 
  28   2.0000      -0.338998        -9.2246 
  29   2.0000      -0.331164        -9.0114 
  30   2.0000      -0.330205        -8.9853 
  31   2.0000      -0.289267        -7.8713 
  32   2.0000      -0.247954        -6.7472 
  33   2.0000      -0.220009        -5.9868 
  34   0.0000      -0.041947        -1.1414 
  35   0.0000      -0.013041        -0.3549 
  36   0.0000       0.026368         0.7175 
  37   0.0000       0.070790         1.9263 
  38   0.0000       0.086399         2.3510 
  39   0.0000       0.091803         2.4981 
  40   0.0000       0.095901         2.6096 
  41   0.0000       0.128860         3.5064 
  42   0.0000       0.129473         3.5231 
  43   0.0000       0.147507         4.0139 
  44   0.0000       0.156770         4.2659 
  45   0.0000       0.186340         5.0706 
  46   0.0000       0.193828         5.2743 
  47   0.0000       0.246974         6.7205 
  48   0.0000       0.281913         7.6712 
  49   0.0000       0.290302         7.8995 
  50   0.0000       0.293840         7.9958 
  51   0.0000       0.304623         8.2892 
  52   0.0000       0.309911         8.4331 
  53   0.0000       0.334489         9.1019 
  54   0.0000       0.347481         9.4554 
  55   0.0000       0.370683        10.0868 
  56   0.0000       0.383831        10.4446 
  57   0.0000       0.396564        10.7911 
  58   0.0000       0.417348        11.3566 
  59   0.0000       0.427529        11.6336 
  60   0.0000       0.438797        11.9403 
  61   0.0000       0.457443        12.4477 
  62   0.0000       0.458220        12.4688 
  63   0.0000       0.485177        13.2023 
  64   0.0000       0.487888        13.2761 
  65   0.0000       0.491206        13.3664 
  66   0.0000       0.493416        13.4265 
  67   0.0000       0.508131        13.8270 
  68   0.0000       0.520188        14.1550 
  69   0.0000       0.534691        14.5497 
  70   0.0000       0.550672        14.9845 
  71   0.0000       0.550799        14.9880 
  72   0.0000       0.564303        15.3555 
  73   0.0000       0.611394        16.6369 
  74   0.0000       0.624013        16.9803 
  75   0.0000       0.630443        17.1552 
  76   0.0000       0.650074        17.6894 
  77   0.0000       0.652858        17.7652 
  78   0.0000       0.656475        17.8636 
  79   0.0000       0.666526        18.1371 
  80   0.0000       0.669788        18.2259 
  81   0.0000       0.694743        18.9049 
  82   0.0000       0.700481        19.0610 
  83   0.0000       0.706055        19.2127 
  84   0.0000       0.707731        19.2583 
  85   0.0000       0.746226        20.3058 
  86   0.0000       0.758918        20.6512 
  87   0.0000       0.759557        20.6686 
  88   0.0000       0.773090        21.0368 
  89   0.0000       0.773664        21.0525 
  90   0.0000       0.818071        22.2609 
  91   0.0000       0.821924        22.3657 
  92   0.0000       0.835305        22.7298 
  93   0.0000       0.864143        23.5145 
  94   0.0000       0.901068        24.5193 
  95   0.0000       0.926925        25.2229 
  96   0.0000       1.024324        27.8733 
  97   0.0000       1.089900        29.6577 
  98   0.0000       1.110411        30.2158 
  99   0.0000       1.114394        30.3242 
 100   0.0000       1.161352        31.6020 
 101   0.0000       1.206840        32.8398 
 102   0.0000       1.241818        33.7916 
 103   0.0000       1.243547        33.8386 
 104   0.0000       1.252003        34.0687 
 105   0.0000       1.269525        34.5455 
 106   0.0000       1.271741        34.6058 
 107   0.0000       1.275940        34.7201 
 108   0.0000       1.283165        34.9167 
 109   0.0000       1.291363        35.1398 
 110   0.0000       1.329735        36.1839 
 111   0.0000       1.335227        36.3334 
 112   0.0000       1.347492        36.6671 
 113   0.0000       1.504751        40.9464 
 114   0.0000       1.511737        41.1365 
 115   0.0000       1.645685        44.7814 
 116   0.0000       1.653001        44.9805 
 117   0.0000       1.658287        45.1243 
 118   0.0000       1.675399        45.5899 
 119   0.0000       1.708271        46.4844 
 120   0.0000       1.727628        47.0112 
 121   0.0000       1.727679        47.0125 
 122   0.0000       1.729895        47.0728 
 123   0.0000       1.739960        47.3467 
 124   0.0000       1.772125        48.2220 
 125   0.0000       1.781390        48.4741 
 126   0.0000       1.785167        48.5769 
 127   0.0000       1.796157        48.8759 
 128   0.0000       1.801217        49.0136 
 129   0.0000       1.810982        49.2793 
 130   0.0000       1.814652        49.3792 
 131   0.0000       1.830070        49.7987 
 132   0.0000       1.931688        52.5639 
 133   0.0000       1.932837        52.5952 
 134   0.0000       1.948375        53.0180 
 135   0.0000       1.959553        53.3221 
 136   0.0000       1.960530        53.3487 
 137   0.0000       1.991979        54.2045 
 138   0.0000       1.992206        54.2107 
 139   0.0000       2.045581        55.6631 
 140   0.0000       2.053734        55.8850 
 141   0.0000       2.097968        57.0886 
 142   0.0000       2.126760        57.8721 
 143   0.0000       2.132102        58.0174 
 144   0.0000       2.138315        58.1865 
 145   0.0000       2.142060        58.2884 
 146   0.0000       2.178684        59.2850 
 147   0.0000       2.184507        59.4435 
 148   0.0000       2.200068        59.8669 
 149   0.0000       2.251150        61.2569 
 150   0.0000       2.294500        62.4365 
 151   0.0000       2.301651        62.6311 
 152   0.0000       2.306798        62.7712 
 153   0.0000       2.371964        64.5444 
 154   0.0000       2.375873        64.6508 
 155   0.0000       2.384210        64.8777 
 156   0.0000       2.419957        65.8504 
 157   0.0000       2.469847        67.2080 
 158   0.0000       2.521704        68.6191 
 159   0.0000       2.535021        68.9814 
 160   0.0000       2.586372        70.3787 
 161   0.0000       2.606367        70.9229 
 162   0.0000       2.647244        72.0352 
 163   0.0000       2.657972        72.3271 
 164   0.0000       2.693786        73.3016 
 165   0.0000       2.735652        74.4409 
 166   0.0000       2.748253        74.7838 
 167   0.0000       2.756960        75.0207 
 168   0.0000       2.770090        75.3780 
 169   0.0000       2.808214        76.4154 
 170   0.0000       2.906665        79.0944 
 171   0.0000       2.913160        79.2711 
 172   0.0000       2.943311        80.0916 
 173   0.0000       2.999758        81.6276 
 174   0.0000       3.116164        84.7951 
 175   0.0000       3.130852        85.1948 
 176   0.0000       3.164282        86.1045 
 177   0.0000       3.278650        89.2166 
 178   0.0000       3.571314        97.1804 
 179   0.0000       3.690122       100.4133 

                    ********************************
                    * MULLIKEN POPULATION ANALYSIS *
                    ********************************

-----------------------
MULLIKEN ATOMIC CHARGES
-----------------------
   0 C :    0.022606
   1 C :   -0.023207
   2 C :    0.079852
   3 C :    0.079844
   4 C :   -0.023296
   5 C :    0.022138
   6 H :   -0.025918
   7 H :   -0.013216
   8 H :   -0.025944
   9 C :   -0.023296
  10 C :   -0.023202
  11 H :   -0.025919
  12 H :   -0.013017
  13 C :    0.022607
  14 C :    0.022141
  15 H :   -0.025943
  16 H :   -0.013216
  17 H :   -0.013016
Sum of atomic charges:    0.0000000

--------------------------------
MULLIKEN REDUCED ORBITAL CHARGES
--------------------------------
  0 C s       :     3.162448  s :     3.162448
      pz      :     0.989235  p :     2.779281
      px      :     0.932906
      py      :     0.857140
      dz2     :     0.002468  d :     0.035664
      dxz     :     0.005813
      dyz     :     0.003209
      dx2y2   :     0.011304
      dxy     :     0.012870
  1 C s       :     3.244465  s :     3.244465
      pz      :     0.989105  p :     2.743551
      px      :     0.888148
      py      :     0.866297
      dz2     :     0.002517  d :     0.035191
      dxz     :     0.006056
      dyz     :     0.002903
      dx2y2   :     0.010709
      dxy     :     0.013005
  2 C s       :     3.081086  s :     3.081086
      pz      :     0.976209  p :     2.796488
      px      :     0.869088
      py      :     0.951191
      dz2     :     0.003113  d :     0.042574
      dxz     :     0.006437
      dyz     :     0.005794
      dx2y2   :     0.013441
      dxy     :     0.013789
  3 C s       :     3.081088  s :     3.081088
      pz      :     0.976208  p :     2.796494
      px      :     0.869106
      py      :     0.951180
      dz2     :     0.003113  d :     0.042574
      dxz     :     0.006437
      dyz     :     0.005794
      dx2y2   :     0.013441
      dxy     :     0.013789
  4 C s       :     3.244659  s :     3.244659
      pz      :     0.989107  p :     2.743446
      px      :     0.938549
      py      :     0.815790
      dz2     :     0.002517  d :     0.035191
      dxz     :     0.005071
      dyz     :     0.003889
      dx2y2   :     0.011809
      dxy     :     0.011905
  5 C s       :     3.162311  s :     3.162311
      pz      :     0.989391  p :     2.779884
      px      :     0.831970
      py      :     0.958523
      dz2     :     0.002469  d :     0.035667
      dxz     :     0.002361
      dyz     :     0.006661
      dx2y2   :     0.013335
      dxy     :     0.010842
  6 H s       :     1.002553  s :     1.002553
      pz      :     0.004719  p :     0.023365
      px      :     0.006512
      py      :     0.012134
  7 H s       :     0.989965  s :     0.989965
      pz      :     0.004662  p :     0.023250
      px      :     0.006416
      py      :     0.012172
  8 H s       :     1.002577  s :     1.002577
      pz      :     0.004719  p :     0.023367
      px      :     0.006419
      py      :     0.012228
  9 C s       :     3.244669  s :     3.244669
      pz      :     0.989106  p :     2.743436
      px      :     0.938559
      py      :     0.815771
      dz2     :     0.002517  d :     0.035191
      dxz     :     0.005071
      dyz     :     0.003889
      dx2y2   :     0.011809
      dxy     :     0.011904
 10 C s       :     3.244475  s :     3.244475
      pz      :     0.989100  p :     2.743536
      px      :     0.888147
      py      :     0.866289
      dz2     :     0.002517  d :     0.035191
      dxz     :     0.006056
      dyz     :     0.002903
      dx2y2   :     0.010709
      dxy     :     0.013005
 11 H s       :     1.002554  s :     1.002554
      pz      :     0.004719  p :     0.023365
      px      :     0.006512
      py      :     0.012134
 12 H s       :     0.989772  s :     0.989772
      pz      :     0.004662  p :     0.023245
      px      :     0.015161
      py      :     0.003422
 13 C s       :     3.162443  s :     3.162443
      pz      :     0.989236  p :     2.779285
      px      :     0.932906
      py      :     0.857143
      dz2     :     0.002468  d :     0.035665
      dxz     :     0.005813
      dyz     :     0.003209
      dx2y2   :     0.011304
      dxy     :     0.012870
 14 C s       :     3.162310  s :     3.162310
      pz      :     0.989391  p :     2.779882
      px      :     0.831977
      py      :     0.958514
      dz2     :     0.002469  d :     0.035667
      dxz     :     0.002361
      dyz     :     0.006661
      dx2y2   :     0.013334
      dxy     :     0.010842
 15 H s       :     1.002576  s :     1.002576
      pz      :     0.004719  p :     0.023367
      px      :     0.006419
      py      :     0.012228
 16 H s       :     0.989965  s :     0.989965
      pz      :     0.004662  p :     0.023250
      px      :     0.006416
      py      :     0.012172
 17 H s       :     0.989772  s :     0.989772
      pz      :     0.004662  p :     0.023245
      px      :     0.015161
      py      :     0.003422


                     *******************************
                     * LOEWDIN POPULATION ANALYSIS *
                     *******************************

----------------------
LOEWDIN ATOMIC CHARGES
----------------------
   0 C :   -0.028865
   1 C :   -0.018035
   2 C :   -0.021306
   3 C :   -0.021303
   4 C :   -0.018058
   5 C :   -0.029027
   6 H :    0.028555
   7 H :    0.029074
   8 H :    0.028557
   9 C :   -0.018056
  10 C :   -0.018033
  11 H :    0.028554
  12 H :    0.029100
  13 C :   -0.028865
  14 C :   -0.029025
  15 H :    0.028558
  16 H :    0.029074
  17 H :    0.029100

-------------------------------
LOEWDIN REDUCED ORBITAL CHARGES
-------------------------------
  0 C s       :     2.857220  s :     2.857220
      pz      :     0.969884  p :     3.079089
      px      :     1.067929
      py      :     1.041277
      dz2     :     0.006180  d :     0.092555
      dxz     :     0.012296
      dyz     :     0.006169
      dx2y2   :     0.031803
      dxy     :     0.036108
  1 C s       :     2.857013  s :     2.857013
      pz      :     0.970672  p :     3.068992
      px      :     1.062320
      py      :     1.036001
      dz2     :     0.006201  d :     0.092030
      dxz     :     0.012466
      dyz     :     0.005579
      dx2y2   :     0.031030
      dxy     :     0.036754
  2 C s       :     2.841057  s :     2.841057
      pz      :     0.961947  p :     3.069243
      px      :     1.051968
      py      :     1.055328
      dz2     :     0.007489  d :     0.111005
      dxz     :     0.013068
      dyz     :     0.011851
      dx2y2   :     0.038986
      dxy     :     0.039612
  3 C s       :     2.841058  s :     2.841058
      pz      :     0.961946  p :     3.069241
      px      :     1.051965
      py      :     1.055330
      dz2     :     0.007489  d :     0.111005
      dxz     :     0.013067
      dyz     :     0.011852
      dx2y2   :     0.038987
      dxy     :     0.039610
  4 C s       :     2.857026  s :     2.857026
      pz      :     0.970680  p :     3.069001
      px      :     1.045606
      py      :     1.052714
      dz2     :     0.006200  d :     0.092032
      dxz     :     0.010655
      dyz     :     0.007392
      dx2y2   :     0.033711
      dxy     :     0.034072
  5 C s       :     2.857229  s :     2.857229
      pz      :     0.969995  p :     3.079246
      px      :     1.040464
      py      :     1.068788
      dz2     :     0.006179  d :     0.092552
      dxz     :     0.003979
      dyz     :     0.014486
      dx2y2   :     0.036838
      dxy     :     0.031071
  6 H s       :     0.902501  s :     0.902501
      pz      :     0.014792  p :     0.068944
      px      :     0.019537
      py      :     0.034615
  7 H s       :     0.902258  s :     0.902258
      pz      :     0.014648  p :     0.068668
      px      :     0.019043
      py      :     0.034977
  8 H s       :     0.902494  s :     0.902494
      pz      :     0.014794  p :     0.068949
      px      :     0.019061
      py      :     0.035095
  9 C s       :     2.857027  s :     2.857027
      pz      :     0.970680  p :     3.068999
      px      :     1.045609
      py      :     1.052710
      dz2     :     0.006200  d :     0.092031
      dxz     :     0.010655
      dyz     :     0.007392
      dx2y2   :     0.033712
      dxy     :     0.034071
 10 C s       :     2.857012  s :     2.857012
      pz      :     0.970667  p :     3.068990
      px      :     1.062321
      py      :     1.036002
      dz2     :     0.006201  d :     0.092031
      dxz     :     0.012466
      dyz     :     0.005580
      dx2y2   :     0.031030
      dxy     :     0.036754
 11 H s       :     0.902502  s :     0.902502
      pz      :     0.014792  p :     0.068943
      px      :     0.019538
      py      :     0.034614
 12 H s       :     0.902229  s :     0.902229
      pz      :     0.014651  p :     0.068671
      px      :     0.042601
      py      :     0.011419
 13 C s       :     2.857218  s :     2.857218
      pz      :     0.969884  p :     3.079091
      px      :     1.067929
      py      :     1.041278
      dz2     :     0.006180  d :     0.092557
      dxz     :     0.012296
      dyz     :     0.006169
      dx2y2   :     0.031803
      dxy     :     0.036108
 14 C s       :     2.857229  s :     2.857229
      pz      :     0.969995  p :     3.079244
      px      :     1.040464
      py      :     1.068785
      dz2     :     0.006179  d :     0.092552
      dxz     :     0.003978
      dyz     :     0.014486
      dx2y2   :     0.036838
      dxy     :     0.031070
 15 H s       :     0.902492  s :     0.902492
      pz      :     0.014794  p :     0.068949
      px      :     0.019061
      py      :     0.035094
 16 H s       :     0.902258  s :     0.902258
      pz      :     0.014648  p :     0.068668
      px      :     0.019043
      py      :     0.034977
 17 H s       :     0.902229  s :     0.902229
      pz      :     0.014651  p :     0.068670
      px      :     0.042601
      py      :     0.011419


                      *****************************
                      * MAYER POPULATION ANALYSIS *
                      *****************************

  NA   - Mulliken gross atomic population
  ZA   - Total nuclear charge
  QA   - Mulliken gross atomic charge
  VA   - Mayer's total valence
  BVA  - Mayer's bonded valence
  FA   - Mayer's free valence

  ATOM       NA         ZA         QA         VA         BVA        FA
  0 C      5.9774     6.0000     0.0226     3.7975     3.7975    -0.0000
  1 C      6.0232     6.0000    -0.0232     3.7869     3.7869     0.0000
  2 C      5.9201     6.0000     0.0799     3.7880     3.7880     0.0000
  3 C      5.9202     6.0000     0.0798     3.7880     3.7880     0.0000
  4 C      6.0233     6.0000    -0.0233     3.7873     3.7873    -0.0000
  5 C      5.9779     6.0000     0.0221     3.7973     3.7973    -0.0000
  6 H      1.0259     1.0000    -0.0259     0.9844     0.9844     0.0000
  7 H      1.0132     1.0000    -0.0132     0.9776     0.9776     0.0000
  8 H      1.0259     1.0000    -0.0259     0.9845     0.9845     0.0000
  9 C      6.0233     6.0000    -0.0233     3.7873     3.7873     0.0000
 10 C      6.0232     6.0000    -0.0232     3.7869     3.7869     0.0000
 11 H      1.0259     1.0000    -0.0259     0.9844     0.9844    -0.0000
 12 H      1.0130     1.0000    -0.0130     0.9776     0.9776    -0.0000
 13 C      5.9774     6.0000     0.0226     3.7975     3.7975     0.0000
 14 C      5.9779     6.0000     0.0221     3.7973     3.7973    -0.0000
 15 H      1.0259     1.0000    -0.0259     0.9845     0.9845    -0.0000
 16 H      1.0132     1.0000    -0.0132     0.9776     0.9776     0.0000
 17 H      1.0130     1.0000    -0.0130     0.9776     0.9776    -0.0000

  Mayer bond orders larger than 0.100000
B(  0-C ,  1-C ) :   1.4762 B(  0-C ,  5-C ) :   1.2486 B(  0-C ,  7-H ) :   0.9883 
B(  1-C ,  2-C ) :   1.2384 B(  1-C ,  8-H ) :   0.9962 B(  2-C ,  3-C ) :   1.2477 
B(  2-C ,  9-C ) :   1.2383 B(  3-C ,  4-C ) :   1.2383 B(  3-C , 10-C ) :   1.2384 
B(  4-C ,  5-C ) :   1.4764 B(  4-C , 11-H ) :   0.9961 B(  5-C , 12-H ) :   0.9880 
B(  6-H ,  9-C ) :   0.9961 B(  9-C , 14-C ) :   1.4764 B( 10-C , 13-C ) :   1.4762 
B( 10-C , 15-H ) :   0.9962 B( 13-C , 14-C ) :   1.2487 B( 13-C , 16-H ) :   0.9883 
B( 14-C , 17-H ) :   0.9880 

-------
TIMINGS
-------

Total SCF time: 0 days 0 hours 1 min 14 sec 

Total time                  ....      74.835 sec
Sum of individual times     ....      74.493 sec  ( 99.5%)

Fock matrix formation       ....      70.788 sec  ( 94.6%)
  Split-RI-J                ....       4.662 sec  (  6.6% of F)
  Chain of spheres X        ....      48.997 sec  ( 69.2% of F)
  XC integration            ....      10.448 sec  ( 14.8% of F)
    Basis function eval.    ....       4.401 sec  ( 42.1% of XC)
    Density eval.           ....       2.429 sec  ( 23.2% of XC)
    XC-Functional eval.     ....       0.894 sec  (  8.6% of XC)
    XC-Potential eval.      ....       2.433 sec  ( 23.3% of XC)
Diagonalization             ....       0.028 sec  (  0.0%)
Density matrix formation    ....       0.005 sec  (  0.0%)
Population analysis         ....       0.004 sec  (  0.0%)
Initial guess               ....       0.721 sec  (  1.0%)
Orbital Transformation      ....       0.000 sec  (  0.0%)
Orbital Orthonormalization  ....       0.000 sec  (  0.0%)
DIIS solution               ....       0.007 sec  (  0.0%)
SOSCF solution              ....       0.018 sec  (  0.0%)
Grid generation             ....       2.923 sec  (  3.9%)

Maximum memory used throughout the entire SCF-calculation: 77.2 MB
------------------------------------------------------------------------------
                          ORCA TD-DFT CALCULATION
------------------------------------------------------------------------------

Input orbitals are from        ... /scratch/dca0099.334889/Phos_dft_naphtalene.gbw
CI-vector output               ... /scratch/dca0099.334889/Phos_dft_naphtalene.cis
Tamm-Dancoff approximation     ... deactivated
RPA-Integral strategy          ... AO-integrals
Integral handling              ... AO integral Direct
Max. core memory used          ... 120000 MB
Reference state                ... RHF
Generation of triplets         ... off
Follow IRoot                   ... off
Number of operators            ... 1
Orbital ranges used for CIS calculation:
 Operator 0:  Orbitals  10... 33  to  34...179
XAS localization array:
 Operator 0:  Orbitals  -1... -1

-------------------
XC-INTEGRATION GRID
-------------------

General Integration Accuracy     IntAcc      ... 3.467
Radial Grid Type                 RadialGrid  ... OptM3 with GC (2021)
Angular Grid (max. ang.)         AngularGrid ... 1 (Lebedev-50)
Angular grid pruning method      GridPruning ... 4 (adaptive)
Weight generation scheme         WeightScheme... Becke
Basis function cutoff            BFCut       ... 1.0000e-11
Integration weight cutoff        WCut        ... 1.0000e-14
Angular grids for H and He will be reduced by one unit
Partially contracted basis set               ... off
Rotationally invariant grid construction     ... off

Total number of grid points                  ...    12600
Total number of batches                      ...      206
Average number of points per batch           ...       61
Average number of grid points per atom       ...      700

---------------------
COSX-INTEGRATION GRID
---------------------

General Integration Accuracy     IntAcc      ... 3.067
Radial Grid Type                 RadialGrid  ... OptM3 with GC (2021)
Angular Grid (max. ang.)         AngularGrid ... 1 (Lebedev-50)
Angular grid pruning method      GridPruning ... 4 (adaptive)
Weight generation scheme         WeightScheme... Becke
Basis function cutoff            BFCut       ... 1.0000e-11
Integration weight cutoff        WCut        ... 1.0000e-14
Angular grids for H and He will be reduced by one unit
Partially contracted basis set               ... on
Rotationally invariant grid construction     ... off

Total number of grid points                  ...     5774
Total number of batches                      ...      102
Average number of points per batch           ...       56
Average number of grid points per atom       ...      321

---------------
TD-DFT XC SETUP
---------------

DFT calculation                         ... on
Name of the grid file                   ... /scratch/dca0099.334889/Phos_dft_naphtalene.grid_cis.tmp
Exchange functional (TD-DFT)            ... B88
   X-Alpha parameter    XAlpha (TD-DFT) ...  0.666667
   Becke's b parameter  XBeta (TD-DFT)  ...  0.004200
Correlation functional (TD-DFT)         ... LYP
 LDA part of GGA corr.  LDAOpt (TD-DFT) ... VWN-5
Hybrid DFT                              ... on
   Exchange mixing (TD-DFT)             ...  0.200
   GGA exch. scaling (TD-DFT)           ...  0.720
   GGA corr. scaling (TD-DFT)           ...  0.810

Building densities             ... done
Calculating rho(r) on the grid ... done
Building xc-kernel on the grid ... done
                    *** TD-DFT CALCULATION INITIALIZED ***

-----------------------------
    LR-CPCM (equilibrium)
-----------------------------

Setting up LR-CPCM             ... done

-------------------
RPA-DIAGONALIZATION
-------------------

Dimension of the (A+B)(A-B) eigenvalue problem ...   3504
Number of roots to be determined               ...      6
Maximum size of the expansion space            ...    180
Convergence tolerance for the residual         ...    2.500e-07
Convergence tolerance for the energies         ...    2.500e-07
Orthogonality tolerance                        ...    1.000e-14
Constructing the preconditioner                ... o.k.
Building the initial guess                     ... o.k.
Number of trial vectors determined             ...    180


                       ****Iteration    0****

   Memory handling for direct AO based RPA:
   Memory per vector needed      ...     1 MB
   Memory needed                 ...    23 MB
   Memory available              ... 120000 MB
   Number of vectors per batch   ... 92813
   Number of batches             ...     1
   Time for densities:            0.005
   Time for XC-Integration:       2.898
   Time for K (COSX):             4.138
   Time for RI-J (Direct):        4.016
   Time for LR-CPCM terms:        1.457
   Time for Sigma-Completion:     0.008
   Size of expansion space: 18
   Lowest Energy          :     0.168623046403
   Maximum Energy change  :     0.246663086558 (vector 5)
   Maximum residual norm  :     0.085822855122

                       ****Iteration    1****
   Time for densities:            0.002
   Time for XC-Integration:       0.669
   Time for K (COSX):             2.705
   Time for RI-J (Direct):        1.523
   Time for LR-CPCM terms:        0.848
   Time for Sigma-Completion:     0.002
   Size of expansion space: 24
   Lowest Energy          :     0.163393396367
   Maximum Energy change  :     0.022890145916 (vector 3)
   Maximum residual norm  :     0.003791326688

                       ****Iteration    2****
   Time for densities:            0.001
   Time for XC-Integration:       0.667
   Time for K (COSX):             2.712
   Time for RI-J (Direct):        1.524
   Time for LR-CPCM terms:        0.849
   Time for Sigma-Completion:     0.023
   Size of expansion space: 30
   Lowest Energy          :     0.162189440790
   Maximum Energy change  :     0.001203955577 (vector 0)
   Maximum residual norm  :     0.000706260362

                       ****Iteration    3****
   Time for densities:            0.001
   Time for XC-Integration:       0.667
   Time for K (COSX):             2.717
   Time for RI-J (Direct):        1.523
   Time for LR-CPCM terms:        0.849
   Time for Sigma-Completion:     0.002
   Size of expansion space: 36
   Lowest Energy          :     0.162085526669
   Maximum Energy change  :     0.000274234605 (vector 2)
   Maximum residual norm  :     0.000360064938

                       ****Iteration    4****
   Time for densities:            0.001
   Time for XC-Integration:       0.673
   Time for K (COSX):             2.711
   Time for RI-J (Direct):        1.528
   Time for LR-CPCM terms:        1.585
   Time for Sigma-Completion:     0.003
   Size of expansion space: 42
   Lowest Energy          :     0.162005399072
   Maximum Energy change  :     0.000277284463 (vector 2)
   Maximum residual norm  :     0.000050946510

                       ****Iteration    5****
   Time for densities:            0.002
   Time for XC-Integration:       0.885
   Time for K (COSX):             3.006
   Time for RI-J (Direct):        1.527
   Time for LR-CPCM terms:        0.852
   Time for Sigma-Completion:     0.003
   Size of expansion space: 48
   Lowest Energy          :     0.162001577025
   Maximum Energy change  :     0.004298389207 (vector 5)
   Maximum residual norm  :     0.043973324741

                       ****Iteration    6****
   Time for densities:            0.002
   Time for XC-Integration:       0.682
   Time for K (COSX):             2.976
   Time for RI-J (Direct):        1.529
   Time for LR-CPCM terms:        0.854
   Time for Sigma-Completion:     0.003
   Size of expansion space: 54
   Lowest Energy          :     0.162001198969
   Maximum Energy change  :     0.007168453219 (vector 5)
   Maximum residual norm  :     0.000770512612

                       ****Iteration    7****
   Time for densities:            0.002
   Time for XC-Integration:       0.682
   Time for K (COSX):             2.964
   Time for RI-J (Direct):        1.535
   Time for LR-CPCM terms:        0.852
   Time for Sigma-Completion:     0.003
   Size of expansion space: 60
   Lowest Energy          :     0.162001128353
   Maximum Energy change  :     0.000440683930 (vector 4)
   Maximum residual norm  :     0.000238851082

                       ****Iteration    8****
   Time for densities:            0.002
   Time for XC-Integration:       0.683
   Time for K (COSX):             2.961
   Time for RI-J (Direct):        1.529
   Time for LR-CPCM terms:        0.853
   Time for Sigma-Completion:     0.003
   Size of expansion space: 66
   Lowest Energy          :     0.162001125613
   Maximum Energy change  :     0.000142571145 (vector 4)
   Maximum residual norm  :     0.000032872411

                       ****Iteration    9****
   Time for densities:            0.001
   Time for XC-Integration:       0.686
   Time for K (COSX):             2.962
   Time for RI-J (Direct):        1.532
   Time for LR-CPCM terms:        0.854
   Time for Sigma-Completion:     0.003
   Size of expansion space: 72
   Lowest Energy          :     0.162001124984
   Maximum Energy change  :     0.000014074888 (vector 4)
   Maximum residual norm  :     0.000002714365

                       ****Iteration   10****
   Time for densities:            0.002
   Time for XC-Integration:       0.688
   Time for K (COSX):             2.966
   Time for RI-J (Direct):        1.530
   Time for LR-CPCM terms:        0.853
   Time for Sigma-Completion:     0.003
   Size of expansion space: 78
   Lowest Energy          :     0.162001124955
   Maximum Energy change  :     0.000001697012 (vector 4)
   Maximum residual norm  :     0.000001002914

                       ****Iteration   11****
   Time for densities:            0.001
   Time for XC-Integration:       0.692
   Time for K (COSX):             2.968
   Time for RI-J (Direct):        1.532
   Time for LR-CPCM terms:        0.853
   Time for Sigma-Completion:     0.003
   Size of expansion space: 84
   Lowest Energy          :     0.162001124945
   Maximum Energy change  :     0.000000409751 (vector 4)
   Maximum residual norm  :     0.000000055551

      *** CONVERGENCE OF RESIDUAL NORM REACHED ***

Storing the converged CI vectors               ... /scratch/dca0099.334889/Phos_dft_naphtalene.cis1

                 *** DAVIDSON DONE ***

Total time for solving the RPA problem:    79.552sec

--------------------------------
TD-DFT EXCITED STATES (SINGLETS)
--------------------------------

the weight of the individual excitations are printed if larger than 0.01

STATE  1:  E=   0.162001 au      4.408 eV    35555.1 cm**-1 <S**2> =   0.000000
    32a ->  35a  :     0.034995 
    33a ->  34a  :     0.951158 

STATE  2:  E=   0.166625 au      4.534 eV    36569.9 cm**-1 <S**2> =   0.000000
    32a ->  34a  :     0.501208 
    33a ->  35a  :     0.496043 

STATE  3:  E=   0.211189 au      5.747 eV    46350.7 cm**-1 <S**2> =   0.000000
    32a ->  34a  :     0.486570 
    33a ->  35a  :     0.492991 

STATE  4:  E=   0.212981 au      5.795 eV    46743.8 cm**-1 <S**2> =   0.000000
    31a ->  34a  :     0.438638 
    33a ->  36a  :     0.560533 

STATE  5:  E=   0.226078 au      6.152 eV    49618.4 cm**-1 <S**2> =   0.000000
    31a ->  36a  :     0.027615 
    32a ->  35a  :     0.931926 
    33a ->  34a  :     0.028115 

STATE  6:  E=   0.233679 au      6.359 eV    51286.7 cm**-1 <S**2> =   0.000000
    29a ->  34a  :     0.025500 
    31a ->  35a  :     0.466697 
    32a ->  36a  :     0.497008 


-------------------------
TD-DFT-EXCITATION SPECTRA
-------------------------

Center of mass = (  0.0000, -0.0000, -0.0000)
Calculating the Dipole integrals                  ... done
Transforming integrals                            ... done
Calculating the Linear Momentum integrals         ... done
Transforming integrals                            ... done
Calculating angular momentum integrals            ... done
Transforming integrals                            ... done

-----------------------------------------------------------------------------
         ABSORPTION SPECTRUM VIA TRANSITION ELECTRIC DIPOLE MOMENTS
[...]
CI-vector output               ... /scratch/dca0099.334889/Phos_dft_naphtalene_job3.cis
Tamm-Dancoff approximation     ... deactivated
RPA-Integral strategy          ... AO-integrals
Integral handling              ... AO integral Direct
Max. core memory used          ... 120000 MB
Reference state                ... RHF
Generation of triplets         ... off
Follow IRoot                   ... off
Number of operators            ... 1
Orbital ranges used for CIS calculation:
 Operator 0:  Orbitals  10... 33  to  34...179
XAS localization array:
 Operator 0:  Orbitals  -1... -1

-------------------
XC-INTEGRATION GRID
-------------------

General Integration Accuracy     IntAcc      ... 3.467
Radial Grid Type                 RadialGrid  ... OptM3 with GC (2021)
Angular Grid (max. ang.)         AngularGrid ... 1 (Lebedev-50)
Angular grid pruning method      GridPruning ... 4 (adaptive)
Weight generation scheme         WeightScheme... Becke
Basis function cutoff            BFCut       ... 1.0000e-11
Integration weight cutoff        WCut        ... 1.0000e-14
Angular grids for H and He will be reduced by one unit
Partially contracted basis set               ... off
Rotationally invariant grid construction     ... off

Total number of grid points                  ...    12600
Total number of batches                      ...      206
Average number of points per batch           ...       61
Average number of grid points per atom       ...      700

---------------------
COSX-INTEGRATION GRID
---------------------

General Integration Accuracy     IntAcc      ... 3.067
Radial Grid Type                 RadialGrid  ... OptM3 with GC (2021)
Angular Grid (max. ang.)         AngularGrid ... 1 (Lebedev-50)
Angular grid pruning method      GridPruning ... 4 (adaptive)
Weight generation scheme         WeightScheme... Becke
Basis function cutoff            BFCut       ... 1.0000e-11
Integration weight cutoff        WCut        ... 1.0000e-14
Angular grids for H and He will be reduced by one unit
Partially contracted basis set               ... on
Rotationally invariant grid construction     ... off

Total number of grid points                  ...     5774
Total number of batches                      ...      102
Average number of points per batch           ...       56
Average number of grid points per atom       ...      321

---------------
TD-DFT XC SETUP
---------------

DFT calculation                         ... on
Name of the grid file                   ... /scratch/dca0099.334889/Phos_dft_naphtalene_job3.grid_cis.tmp
Exchange functional (TD-DFT)            ... B88
   X-Alpha parameter    XAlpha (TD-DFT) ...  0.666667
   Becke's b parameter  XBeta (TD-DFT)  ...  0.004200
Correlation functional (TD-DFT)         ... LYP
 LDA part of GGA corr.  LDAOpt (TD-DFT) ... VWN-5
Hybrid DFT                              ... on
   Exchange mixing (TD-DFT)             ...  0.200
   GGA exch. scaling (TD-DFT)           ...  0.720
   GGA corr. scaling (TD-DFT)           ...  0.810

Building densities             ... done
Calculating rho(r) on the grid ... done
Building xc-kernel on the grid ... done
                    *** TD-DFT CALCULATION INITIALIZED ***

-----------------------------
    LR-CPCM (equilibrium)
-----------------------------

Setting up LR-CPCM             ... done

-------------------
RPA-DIAGONALIZATION
-------------------

Dimension of the (A+B)(A-B) eigenvalue problem ...   3504
Number of roots to be determined               ...      6
Maximum size of the expansion space            ...    180
Convergence tolerance for the residual         ...    2.500e-07
Convergence tolerance for the energies         ...    2.500e-07
Orthogonality tolerance                        ...    1.000e-14
Constructing the preconditioner                ... o.k.
Building the initial guess                     ... o.k.
Number of trial vectors determined             ...    180


                       ****Iteration    0****

   Memory handling for direct AO based RPA:
   Memory per vector needed      ...     1 MB
   Memory needed                 ...    23 MB
   Memory available              ... 120000 MB
   Number of vectors per batch   ... 92813
   Number of batches             ...     1
   Time for densities:            0.007
   Time for XC-Integration:       2.187
   Time for K (COSX):             4.007
   Time for RI-J (Direct):        4.010
   Time for LR-CPCM terms:        1.453
   Time for Sigma-Completion:     0.007
   Size of expansion space: 18
   Lowest Energy          :     0.168622969167
   Maximum Energy change  :     0.246663192005 (vector 5)
   Maximum residual norm  :     0.085822866228

                       ****Iteration    1****
   Time for densities:            0.002
   Time for XC-Integration:       0.670
   Time for K (COSX):             2.955
   Time for RI-J (Direct):        1.522
   Time for LR-CPCM terms:        0.853
   Time for Sigma-Completion:     0.002
   Size of expansion space: 24
   Lowest Energy          :     0.163393320278
   Maximum Energy change  :     0.022890121300 (vector 3)
   Maximum residual norm  :     0.003791325172

                       ****Iteration    2****
   Time for densities:            0.001
   Time for XC-Integration:       0.667
   Time for K (COSX):             2.957
   Time for RI-J (Direct):        1.520
   Time for LR-CPCM terms:        0.852
   Time for Sigma-Completion:     0.002
   Size of expansion space: 30
   Lowest Energy          :     0.162189365276
   Maximum Energy change  :     0.001203955002 (vector 0)
   Maximum residual norm  :     0.000706260175

                       ****Iteration    3****
   Time for densities:            0.001
   Time for XC-Integration:       0.668
   Time for K (COSX):             2.950
   Time for RI-J (Direct):        1.521
   Time for LR-CPCM terms:        0.853
   Time for Sigma-Completion:     0.002
   Size of expansion space: 36
   Lowest Energy          :     0.162085451181
   Maximum Energy change  :     0.000274234716 (vector 2)
   Maximum residual norm  :     0.000360064763

                       ****Iteration    4****
   Time for densities:            0.001
   Time for XC-Integration:       0.672
   Time for K (COSX):             2.953
   Time for RI-J (Direct):        1.527
   Time for LR-CPCM terms:        0.868
   Time for Sigma-Completion:     0.002
   Size of expansion space: 42
   Lowest Energy          :     0.162005323638
   Maximum Energy change  :     0.000277284540 (vector 2)
   Maximum residual norm  :     0.000050946496

                       ****Iteration    5****
   Time for densities:            0.001
   Time for XC-Integration:       0.677
   Time for K (COSX):             2.956
   Time for RI-J (Direct):        1.523
   Time for LR-CPCM terms:        0.853
   Time for Sigma-Completion:     0.002
   Size of expansion space: 48
   Lowest Energy          :     0.162001501596
   Maximum Energy change  :     0.004295879921 (vector 5)
   Maximum residual norm  :     0.043985240339

                       ****Iteration    6****
   Time for densities:            0.001
   Time for XC-Integration:       0.683
   Time for K (COSX):             2.967
   Time for RI-J (Direct):        1.528
   Time for LR-CPCM terms:        0.852
   Time for Sigma-Completion:     0.002
   Size of expansion space: 54
   Lowest Energy          :     0.162001123541
   Maximum Energy change  :     0.007171140366 (vector 5)
   Maximum residual norm  :     0.000770652486

                       ****Iteration    7****
   Time for densities:            0.001
   Time for XC-Integration:       0.683
   Time for K (COSX):             2.945
   Time for RI-J (Direct):        1.529
   Time for LR-CPCM terms:        0.852
   Time for Sigma-Completion:     0.002
   Size of expansion space: 60
   Lowest Energy          :     0.162001052924
   Maximum Energy change  :     0.000440767133 (vector 4)
   Maximum residual norm  :     0.000238850576

                       ****Iteration    8****
   Time for densities:            0.001
   Time for XC-Integration:       0.686
   Time for K (COSX):             2.954
   Time for RI-J (Direct):        1.530
   Time for LR-CPCM terms:        0.853
   Time for Sigma-Completion:     0.002
   Size of expansion space: 66
   Lowest Energy          :     0.162001050185
   Maximum Energy change  :     0.000142570501 (vector 4)
   Maximum residual norm  :     0.000032877524

                       ****Iteration    9****
   Time for densities:            0.001
   Time for XC-Integration:       0.687
   Time for K (COSX):             2.959
   Time for RI-J (Direct):        1.528
   Time for LR-CPCM terms:        0.854
   Time for Sigma-Completion:     0.002
   Size of expansion space: 72
   Lowest Energy          :     0.162001049555
   Maximum Energy change  :     0.000014077010 (vector 4)
   Maximum residual norm  :     0.000002714458

                       ****Iteration   10****
   Time for densities:            0.001
   Time for XC-Integration:       0.688
   Time for K (COSX):             2.955
   Time for RI-J (Direct):        1.530
   Time for LR-CPCM terms:        0.856
   Time for Sigma-Completion:     0.002
   Size of expansion space: 78
   Lowest Energy          :     0.162001049526
   Maximum Energy change  :     0.000001696999 (vector 4)
   Maximum residual norm  :     0.000001002960

                       ****Iteration   11****
   Time for densities:            0.001
   Time for XC-Integration:       0.694
   Time for K (COSX):             2.951
   Time for RI-J (Direct):        1.531
   Time for LR-CPCM terms:        0.855
   Time for Sigma-Completion:     0.002
   Size of expansion space: 84
   Lowest Energy          :     0.162001049517
   Maximum Energy change  :     0.000000409782 (vector 4)
   Maximum residual norm  :     0.000000055551

      *** CONVERGENCE OF RESIDUAL NORM REACHED ***

Storing the converged CI vectors               ... /scratch/dca0099.334889/Phos_dft_naphtalene_job3.cis1

                 *** DAVIDSON DONE ***

Total time for solving the RPA problem:    78.464sec

--------------------------------
TD-DFT EXCITED STATES (SINGLETS)
--------------------------------

the weight of the individual excitations are printed if larger than 0.01

STATE  1:  E=   0.162001 au      4.408 eV    35555.1 cm**-1 <S**2> =   0.000000
    32a ->  35a  :     0.034995 
    33a ->  34a  :     0.951158 

STATE  2:  E=   0.166625 au      4.534 eV    36569.9 cm**-1 <S**2> =   0.000000
    32a ->  34a  :     0.501207 
    33a ->  35a  :     0.496044 

STATE  3:  E=   0.211189 au      5.747 eV    46350.7 cm**-1 <S**2> =   0.000000
    32a ->  34a  :     0.486571 
    33a ->  35a  :     0.492990 

STATE  4:  E=   0.212981 au      5.795 eV    46743.8 cm**-1 <S**2> =   0.000000
    31a ->  34a  :     0.438638 
    33a ->  36a  :     0.560533 

STATE  5:  E=   0.226078 au      6.152 eV    49618.4 cm**-1 <S**2> =   0.000000
    31a ->  36a  :     0.027615 
    32a ->  35a  :     0.931926 
    33a ->  34a  :     0.028115 

STATE  6:  E=   0.233679 au      6.359 eV    51286.7 cm**-1 <S**2> =   0.000000
    29a ->  34a  :     0.025501 
    31a ->  35a  :     0.466698 
    32a ->  36a  :     0.497007 


-------------------------
TD-DFT-EXCITATION SPECTRA
-------------------------

Center of mass = (  0.0000, -0.0000, -0.0000)
Calculating the Dipole integrals                  ... done
Transforming integrals                            ... done
Calculating the Linear Momentum integrals         ... done
Transforming integrals                            ... done
Calculating angular momentum integrals            ... done
Transforming integrals                            ... done

-----------------------------------------------------------------------------
         ABSORPTION SPECTRUM VIA TRANSITION ELECTRIC DIPOLE MOMENTS
-----------------------------------------------------------------------------
State   Energy    Wavelength  fosc         T2        TX        TY        TZ  
        (cm-1)      (nm)                 (au**2)    (au)      (au)      (au) 
-----------------------------------------------------------------------------
   1   35555.1    281.3   0.106134422   0.98272  -0.50118   0.85530   0.00019
   2   36569.9    273.4   0.000021631   0.00019   0.01231   0.00658  -0.00000
   3   46350.7    215.7   1.567429605  11.13289  -2.87986  -1.68501   0.00013
   4   46743.8    213.9   0.000000006   0.00000  -0.00018  -0.00010   0.00000
   5   49618.4    201.5   0.300069253   1.99092  -0.71054   1.21904   0.00027
   6   51286.7    195.0   0.000000004   0.00000  -0.00013  -0.00010   0.00000

-----------------------------------------------------------------------------
         ABSORPTION SPECTRUM VIA TRANSITION VELOCITY DIPOLE MOMENTS
-----------------------------------------------------------------------------
State   Energy    Wavelength   fosc        P2         PX        PY        PZ  
        (cm-1)      (nm)                 (au**2)     (au)      (au)      (au) 
-----------------------------------------------------------------------------
   1   35555.1    281.3   0.120279275   0.02923   0.08647  -0.14748  -0.00003
   2   36569.9    273.4   0.000048480   0.00001   0.00297   0.00181  -0.00000
   3   46350.7    215.7   1.479403863   0.46865   0.59089   0.34569  -0.00003
   4   46743.8    213.9   0.000000005   0.00000   0.00004   0.00002  -0.00000
   5   49618.4    201.5   0.304224421   0.10317   0.16177  -0.27748  -0.00006
   6   51286.7    195.0   0.000000004   0.00000   0.00003   0.00002  -0.00000

-------------------------------------------------------------------
                             CD SPECTRUM
-------------------------------------------------------------------
State  Energy     Wavelength     R         MX        MY        MZ   
       (cm-1)       (nm)     (1e40*cgs)   (au)      (au)      (au)  
-------------------------------------------------------------------
   1   35555.1    281.3     -0.00015  -0.00000  -0.00000  -0.00001
   2   36569.9    273.4      0.00000   0.00000  -0.00000  -0.00000
   3   46350.7    215.7     -0.00136  -0.00000   0.00000  -0.00004
   4   46743.8    213.9      0.00001   0.00003  -0.00004   0.27745
   5   49618.4    201.5     -0.01201   0.00001  -0.00002  -0.00001
   6   51286.7    195.0      0.00000  -0.00000  -0.00000   0.00167

Total run time:       79.938 sec

           *** ORCA-CIS/TD-DFT FINISHED WITHOUT ERROR ***

Maximum memory used throughout the entire CIS-calculation: 75.5 MB

-----------------------
CIS/TD-DFT TOTAL ENERGY
-----------------------

    E(SCF)  =   -385.370814246 Eh
    DE(CIS) =      0.211189113 Eh (Root  3)
    ----------------------------- ---------
    E(tot)  =   -385.159625133 Eh


-------------------------   --------------------
FINAL SINGLE POINT ENERGY      -385.159625133161
-------------------------   --------------------


                            ***************************************
                            *     ORCA property calculations      *
                            ***************************************

                                    ---------------------
                                    Active property flags
                                    ---------------------
   (+) Dipole Moment


------------------------------------------------------------------------------
                       ORCA ELECTRIC PROPERTIES CALCULATION
------------------------------------------------------------------------------

Dipole Moment Calculation                       ... on
Quadrupole Moment Calculation                   ... off
Polarizability Calculation                      ... off
GBWName                                         ... /scratch/dca0099.334889/Phos_dft_naphtalene_job3.gbw
Electron density                                ... /scratch/dca0099.334889/Phos_dft_naphtalene_job3.scfp
The origin for moment calculation is the CENTER OF MASS  = ( 0.000000, -0.000000 -0.000000)

-------------
DIPOLE MOMENT
-------------
                                X             Y             Z
Electronic contribution:      0.00005       0.00000      -0.00001
Nuclear contribution   :     -0.00005       0.00001       0.00001
                        -----------------------------------------
Total Dipole Moment    :      0.00000       0.00001       0.00000
                        -----------------------------------------
Magnitude (a.u.)       :      0.00001
Magnitude (Debye)      :      0.00004



--------------------
Rotational spectrum 
--------------------
 
Rotational constants in cm-1:     0.104651     0.041365     0.029647 
Rotational constants in MHz :  3137.370576  1240.091757   888.786035 

 Dipole components along the rotational axes: 
x,y,z [a.u.] :     0.000008     0.000011     0.000002 
x,y,z [Debye]:     0.000019     0.000029     0.000005 

 

------------------------------------------------------------------------------
                           ORCA EXCITED STATE DYNAMICS
------------------------------------------------------------------------------

Requested calculation:				...phosphorescence
Coordinate system:				...Deloc. Internal (BAKER)
Lineshape function:				...Lorenztian
Excited state PES:				...adiabatic hessian
Apply Duschinky rotation:			...no
Use operator derivatives:			...yes
Convert derivatives between states:		...no
Use same frequencies:				...no
Multiroot calculation:				...no
Single mode calculation:			...no
Selected mode calculation:			...no

Ground state hessian:				Phos_dft_naphtalene.GS.hess
Reading ground state hessian:			...done
Triplet state hessian:				Phos_dft_naphtalene.TS.hess
Reading triplet state hessian:			...done

As an TS Hessian was given, HessFlag is now AH!
Adjusting all geometries to center of mass:	...done
Rotating the triplet state geometry:		...done
The RMSD is:	0.035154

Writting GS hessian to:				/scratch/dca0099.334889/Phos_dft_naphtalene_job3.GS.hess
Calculating Wilson`s B Matrix:			...done
Converting to internal coordinates:		...done
Calculating rotation matrix J:			...done
Calculating displacement vector K:		...done
The sum of K*K is:				5.229635

Checking for transition data:			...done
Final check on derivatives:			...done
Writting GS hessian to:				/scratch/dca0099.334889/Phos_dft_naphtalene_job3.GS.hess

          ***Everything is set, now computing the correlation function***

Homogeneous linewidth is:			50.00 cm-1
Number of points:				131072
Maximum time:					1592.65 fs
Spectral resolution:				3.33 cm-1
Temperature used:				298.15 K
Z value:					9.127953e-65
Cutoff for the correlation function:		1.00e-06
Adiabatic energy difference:			22650.19 cm-1
0-0 energy difference:				21491.08 cm-1
Reference transition dipole (x,y,z):		(-2.87986e+00 0.00000e+00),
                                    		(-1.68501e+00 0.00000e+00),
                                    		(1.26624e-04 0.00000e+00) 
Calculating correlation function:		...done
Last element of the correlation function:	-0.000000,0.000000
Computing the Fourier Transform:		...done

The calculated phosphorescence rate constant is	3.651677e+08 s-1*
with 84.88% from FC and 15.12% from HT

*The rate is multiplied by the square of the refractive index

The phosphorescence spectrum was saved in		/scratch/dca0099.334889/Phos_dft_naphtalene_job3.spectrum

Total run time: 0 hours 0 minutes 11 seconds

                      ****ORCA ESD FINISHED WITHOUT ERROR****

Timings for individual modules:

Sum of individual times         ...      117.699 sec (=   1.962 min)
GTO integral calculation        ...        0.214 sec (=   0.004 min)   0.2 %
SCF iterations                  ...       25.912 sec (=   0.432 min)  22.0 %
CIS module                      ...       79.958 sec (=   1.333 min)  67.9 %
ESD module                      ...       11.615 sec (=   0.194 min)   9.9 %



                             ****ORCA TERMINATED NORMALLY****
TOTAL RUN TIME: 0 days 0 hours 6 minutes 48 seconds 569 msec
