
                                 *****************
                                 * O   R   C   A *
                                 *****************

                                            #,                                       
                                            ###                                      
                                            ####                                     
                                            #####                                    
                                            ######                                   
                                           ########,                                 
                                     ,,################,,,,,                         
                               ,,#################################,,                 
                          ,,##########################################,,             
                       ,#########################################, ''#####,          
                    ,#############################################,,   '####,        
                  ,##################################################,,,,####,       
                ,###########''''           ''''###############################       
              ,#####''   ,,,,##########,,,,          '''####'''          '####       
            ,##' ,,,,###########################,,,                        '##       
           ' ,,###''''                  '''############,,,                           
         ,,##''                                '''############,,,,        ,,,,,,###''
      ,#''                                            '''#######################'''  
     '                                                          ''''####''''         
             ,#######,   #######,   ,#######,      ##                                
            ,#'     '#,  ##    ##  ,#'     '#,    #''#        ######   ,####,        
            ##       ##  ##   ,#'  ##            #'  '#       #        #'  '#        
            ##       ##  #######   ##           ,######,      #####,   #    #        
            '#,     ,#'  ##    ##  '#,     ,#' ,#      #,         ##   #,  ,#        
             '#######'   ##     ##  '#######'  #'      '#     #####' # '####'        



                  #######################################################
                  #                        -***-                        #
                  #          Department of theory and spectroscopy      #
                  #    Directorship and core code : Frank Neese         #
                  #        Max Planck Institute fuer Kohlenforschung    #
                  #                Kaiser Wilhelm Platz 1               #
                  #                 D-45470 Muelheim/Ruhr               #
                  #                      Germany                        #
                  #                                                     #
                  #                  All rights reserved                #
                  #                        -***-                        #
                  #######################################################


                         Program Version 5.0.3 -  RELEASE  -


 With contributions from (in alphabetic order):
   Daniel Aravena         : Magnetic Suceptibility
   Michael Atanasov       : Ab Initio Ligand Field Theory (pilot matlab implementation)
   Alexander A. Auer      : GIAO ZORA, VPT2 properties, NMR spectrum
   Ute Becker             : Parallelization
   Giovanni Bistoni       : ED, misc. LED, open-shell LED, HFLD
   Martin Brehm           : Molecular dynamics
   Dmytro Bykov           : SCF Hessian
   Vijay G. Chilkuri      : MRCI spin determinant printing, contributions to CSF-ICE
   Dipayan Datta          : RHF DLPNO-CCSD density
   Achintya Kumar Dutta   : EOM-CC, STEOM-CC
   Dmitry Ganyushin       : Spin-Orbit,Spin-Spin,Magnetic field MRCI
   Miquel Garcia          : C-PCM and meta-GGA Hessian, CC/C-PCM, Gaussian charge scheme
   Yang Guo               : DLPNO-NEVPT2, F12-NEVPT2, CIM, IAO-localization
   Andreas Hansen         : Spin unrestricted coupled pair/coupled cluster methods
   Benjamin Helmich-Paris : MC-RPA, TRAH-SCF, COSX integrals
   Lee Huntington         : MR-EOM, pCC
   Robert Izsak           : Overlap fitted RIJCOSX, COSX-SCS-MP3, EOM
   Marcus Kettner         : VPT2
   Christian Kollmar      : KDIIS, OOCD, Brueckner-CCSD(T), CCSD density, CASPT2, CASPT2-K
   Simone Kossmann        : Meta GGA functionals, TD-DFT gradient, OOMP2, MP2 Hessian
   Martin Krupicka        : Initial AUTO-CI
   Lucas Lang             : DCDCAS
   Marvin Lechner         : AUTO-CI (C++ implementation), FIC-MRCC
   Dagmar Lenk            : GEPOL surface, SMD
   Dimitrios Liakos       : Extrapolation schemes; Compound Job, initial MDCI parallelization
   Dimitrios Manganas     : Further ROCIS development; embedding schemes
   Dimitrios Pantazis     : SARC Basis sets
   Anastasios Papadopoulos: AUTO-CI, single reference methods and gradients
   Taras Petrenko         : DFT Hessian,TD-DFT gradient, ASA, ECA, R-Raman, ABS, FL, XAS/XES, NRVS
   Peter Pinski           : DLPNO-MP2, DLPNO-MP2 Gradient
   Christoph Reimann      : Effective Core Potentials
   Marius Retegan         : Local ZFS, SOC
   Christoph Riplinger    : Optimizer, TS searches, QM/MM, DLPNO-CCSD(T), (RO)-DLPNO pert. Triples
   Tobias Risthaus        : Range-separated hybrids, TD-DFT gradient, RPA, STAB
   Michael Roemelt        : Original ROCIS implementation
   Masaaki Saitow         : Open-shell DLPNO-CCSD energy and density
   Barbara Sandhoefer     : DKH picture change effects
   Avijit Sen             : IP-ROCIS
   Kantharuban Sivalingam : CASSCF convergence, NEVPT2, FIC-MRCI
   Bernardo de Souza      : ESD, SOC TD-DFT
   Georgi Stoychev        : AutoAux, RI-MP2 NMR, DLPNO-MP2 response
   Willem Van den Heuvel  : Paramagnetic NMR
   Boris Wezisla          : Elementary symmetry handling
   Frank Wennmohs         : Technical directorship


 We gratefully acknowledge several colleagues who have allowed us to
 interface, adapt or use parts of their codes:
   Stefan Grimme, W. Hujo, H. Kruse, P. Pracht,  : VdW corrections, initial TS optimization,
                  C. Bannwarth, S. Ehlert          DFT functionals, gCP, sTDA/sTD-DF
   Ed Valeev, F. Pavosevic, A. Kumar             : LibInt (2-el integral package), F12 methods
   Garnet Chan, S. Sharma, J. Yang, R. Olivares  : DMRG
   Ulf Ekstrom                                   : XCFun DFT Library
   Mihaly Kallay                                 : mrcc  (arbitrary order and MRCC methods)
   Jiri Pittner, Ondrej Demel                    : Mk-CCSD
   Frank Weinhold                                : gennbo (NPA and NBO analysis)
   Christopher J. Cramer and Donald G. Truhlar   : smd solvation model
   Lars Goerigk                                  : TD-DFT with DH, B97 family of functionals
   V. Asgeirsson, H. Jonsson                     : NEB implementation
   FAccTs GmbH                                   : IRC, NEB, NEB-TS, DLPNO-Multilevel, CI-OPT
                                                   MM, QMMM, 2- and 3-layer-ONIOM, Crystal-QMMM,
                                                   LR-CPCM, SF, NACMEs, symmetry and pop. for TD-DFT,
                                                   nearIR, NL-DFT gradient (VV10), updates on ESD,
                                                   ML-optimized integration grids
   S Lehtola, MJT Oliveira, MAL Marques          : LibXC Library
   Liviu Ungur et al                             : ANISO software


 Your calculation uses the libint2 library for the computation of 2-el integrals
 For citations please refer to: http://libint.valeyev.net

 Your ORCA version has been built with support for libXC version: 5.1.0
 For citations please refer to: https://tddft.org/programs/libxc/

 This ORCA versions uses:
   CBLAS   interface :  Fast vector & matrix operations
   LAPACKE interface :  Fast linear algebra routines
   SCALAPACK package :  Parallel linear algebra routines
   Shared memory     :  Shared parallel matrices
   BLAS/LAPACK       :  OpenBLAS 0.3.15  USE64BITINT DYNAMIC_ARCH NO_AFFINITY Haswell SINGLE_THREADED
        Core in use  :  Haswell
   Copyright (c) 2011-2014, The OpenBLAS Project


================================================================================

----- Orbital basis set information -----
Your calculation utilizes the basis: def2-TZVP
   F. Weigend and R. Ahlrichs, Phys. Chem. Chem. Phys. 7, 3297 (2005).

----- AuxJ basis set information -----
Your calculation utilizes the auxiliary basis: def2/J
   F. Weigend, Phys. Chem. Chem. Phys. 8, 1057 (2006).

----- AuxC basis set information -----
Your calculation utilizes the auxiliary basis: def2-TZVP/C
  H-La, Hf-Rn : A. Hellweg, C. Hattig, S. Hofener and W. Klopper, Theor. Chem. Acc. 117, 587 (2007).
        Ce-Lu : J. Chmela and M. E. Harding, Mol. Phys. (2018).

================================================================================
                                        WARNINGS
                       Please study these warnings very carefully!
================================================================================

WARNING: STEOM with SOC not compatible with new densities yet
  ===> : Will switch back to SimpleDens!

WARNING: Post HF methods need fully converged wavefunctions
  ===> : Setting SCFConvForced true
         You can overwrite this default with %scf ConvForced false 


WARNING: MDCI localization with Augmented Hessian Foster-Boys
  ===> : Switching off randomization!

INFO   : the flag for use of the SHARK integral package has been found!

================================================================================

----- Orbital basis set information -----
Your calculation utilizes the basis: def2-TZVP
   F. Weigend and R. Ahlrichs, Phys. Chem. Chem. Phys. 7, 3297 (2005).

----- AuxJ basis set information -----
Your calculation utilizes the auxiliary basis: def2/J
   F. Weigend, Phys. Chem. Chem. Phys. 8, 1057 (2006).

----- AuxC basis set information -----
Your calculation utilizes the auxiliary basis: def2-TZVP/C
  H-La, Hf-Rn : A. Hellweg, C. Hattig, S. Hofener and W. Klopper, Theor. Chem. Acc. 117, 587 (2007).
        Ce-Lu : J. Chmela and M. E. Harding, Mol. Phys. (2018).

================================================================================
                                        WARNINGS
                       Please study these warnings very carefully!
================================================================================

WARNING: STEOM with SOC not compatible with new densities yet
  ===> : Will switch back to SimpleDens!

WARNING: MDCI localization with Augmented Hessian Foster-Boys
  ===> : Switching off randomization!

INFO   : the flag for use of the SHARK integral package has been found!

================================================================================

----- Orbital basis set information -----
Your calculation utilizes the basis: def2-TZVP
   F. Weigend and R. Ahlrichs, Phys. Chem. Chem. Phys. 7, 3297 (2005).

----- AuxJ basis set information -----
Your calculation utilizes the auxiliary basis: def2/J
   F. Weigend, Phys. Chem. Chem. Phys. 8, 1057 (2006).

----- AuxC basis set information -----
Your calculation utilizes the auxiliary basis: def2-TZVP/C
  H-La, Hf-Rn : A. Hellweg, C. Hattig, S. Hofener and W. Klopper, Theor. Chem. Acc. 117, 587 (2007).
        Ce-Lu : J. Chmela and M. E. Harding, Mol. Phys. (2018).

================================================================================
                                        WARNINGS
                       Please study these warnings very carefully!
================================================================================

WARNING: STEOM with SOC not compatible with new densities yet
  ===> : Will switch back to SimpleDens!

WARNING: MDCI localization with Augmented Hessian Foster-Boys
  ===> : Switching off randomization!

INFO   : the flag for use of the SHARK integral package has been found!

================================================================================
                                       INPUT FILE
================================================================================
NAME = /scratch/dca0099.334548/Phos_TZVP_naphtalene.inp
|  1> !STEOM-DLPNO-CCSD DEF2-TZVP DEF2-TZVP/C def2/J RIJCOSX TIGHTSCF CPCM(toluene) RI-SOMF(1X) ESD(PHOSP)
|  2> 
|  3> %maxcore  120000
|  4> 
|  5> %mdci
|  6> 	NRoots 9 #no of roots
|  7> 	IROOT 1
|  8> 	DOSOC TRUE
|  9> 	DOSOLV  TRUE
| 10> end
| 11> 
| 12> %ESD 
| 13> 	GSHESSIAN "Phos_TZVP_naphtalene.GS.hess"
| 14> 	TSHESSIAN "Phos_TZVP_naphtalene.TS.hess"
| 15> 	DOHT TRUE
| 16> 	DELE 22650.19
| 17> END
| 18> 
| 19> * xyz 0 1
| 20>   C   -8.96121784812031      0.24268337776474      0.00033489819780
| 21>   C   -7.59059951968750      0.24371545417717      0.00015198745293
| 22>   C   -6.86693343298993      1.46030211281662      0.00023475747764
| 23>   C   -7.58799559947894      2.69205204792658      0.00050997612007
| 24>   C   -9.00310055342497      2.65617792309838      0.00069280404132
| 25>   C   -9.67467975506609      1.46137108557408      0.00060814266859
| 26>   H   -4.90710891896316      0.55933209328366     -0.00016767341217
| 27>   H   -9.50425962457938     -0.69409088109167      0.00026687164944
| 28>   H   -7.04027568972576     -0.68980140749936     -0.00005544925225
| 29>   C   -5.45183741157070      1.49616229462644      0.00005614405431
| 30>   C   -6.86437066397562      3.90865807672096      0.00059715121121
| 31>   H   -9.54784882567221      3.59299899012176      0.00091076313657
| 32>   H   -10.75737868171900      1.44626581403603      0.00074783188745
| 33>   C   -5.49375285629476      3.90967522182525      0.00042517705822
| 34>   C   -4.78028626336214      2.69100004727155      0.00015218718405
| 35>   H   -7.41470937199301      4.84216327382740      0.00079951152285
| 36>   H   -4.95071130646203      4.84645090655905      0.00050815101568
| 37>   H   -3.69758703691443      2.70613312896136      0.00001676798628
| 38> *
| 39> 
| 40> $NEW_JOB
| 41> 
| 42> !STEOM-DLPNO-CCSD DEF2-TZVP DEF2-TZVP/C def2/J RIJCOSX TIGHTSCF CPCM(toluene) RI-SOMF(1X) ESD(PHOSP)
| 43> 
| 44> %maxcore  120000
| 45> 
| 46> %mdci
| 47> 	NRoots 9 #no of roots
| 48> 	IROOT 2
| 49> 	DOSOC TRUE
| 50> 	DOSOLV  TRUE
| 51> end
| 52> 
| 53> %ESD 
| 54> 	GSHESSIAN "Phos_TZVP_naphtalene.GS.hess"
| 55> 	TSHESSIAN "Phos_TZVP_naphtalene.TS.hess"
| 56> 	DOHT TRUE
| 57> 	DELE 22650.19
| 58> END
| 59> 
| 60> * xyz 0 1
| 61>   C   -8.96121784812031      0.24268337776474      0.00033489819780
| 62>   C   -7.59059951968750      0.24371545417717      0.00015198745293
| 63>   C   -6.86693343298993      1.46030211281662      0.00023475747764
| 64>   C   -7.58799559947894      2.69205204792658      0.00050997612007
| 65>   C   -9.00310055342497      2.65617792309838      0.00069280404132
| 66>   C   -9.67467975506609      1.46137108557408      0.00060814266859
| 67>   H   -4.90710891896316      0.55933209328366     -0.00016767341217
| 68>   H   -9.50425962457938     -0.69409088109167      0.00026687164944
| 69>   H   -7.04027568972576     -0.68980140749936     -0.00005544925225
| 70>   C   -5.45183741157070      1.49616229462644      0.00005614405431
| 71>   C   -6.86437066397562      3.90865807672096      0.00059715121121
| 72>   H   -9.54784882567221      3.59299899012176      0.00091076313657
| 73>   H   -10.75737868171900      1.44626581403603      0.00074783188745
| 74>   C   -5.49375285629476      3.90967522182525      0.00042517705822
| 75>   C   -4.78028626336214      2.69100004727155      0.00015218718405
| 76>   H   -7.41470937199301      4.84216327382740      0.00079951152285
| 77>   H   -4.95071130646203      4.84645090655905      0.00050815101568
| 78>   H   -3.69758703691443      2.70613312896136      0.00001676798628
| 79> *
| 80> 
| 81> $NEW_JOB
| 82> 
| 83> !STEOM-DLPNO-CCSD DEF2-TZVP DEF2-TZVP/C def2/J RIJCOSX TIGHTSCF CPCM(toluene) RI-SOMF(1X) ESD(PHOSP)
| 84> 
| 85> %maxcore  120000
| 86> 
| 87> %mdci
| 88> 	NRoots 9 #no of roots
| 89> 	IROOT 3
| 90> 	DOSOC TRUE
| 91> 	DOSOLV  TRUE
| 92> end
| 93> 
| 94> %ESD 
| 95> 	GSHESSIAN "Phos_TZVP_naphtalene.GS.hess"
| 96> 	TSHESSIAN "Phos_TZVP_naphtalene.TS.hess"
| 97> 	DOHT TRUE
| 98> 	DELE 22650.19
| 99> END
|100> 
|101> * xyz 0 1
|102>   C   -8.96121784812031      0.24268337776474      0.00033489819780
|103>   C   -7.59059951968750      0.24371545417717      0.00015198745293
|104>   C   -6.86693343298993      1.46030211281662      0.00023475747764
|105>   C   -7.58799559947894      2.69205204792658      0.00050997612007
|106>   C   -9.00310055342497      2.65617792309838      0.00069280404132
|107>   C   -9.67467975506609      1.46137108557408      0.00060814266859
|108>   H   -4.90710891896316      0.55933209328366     -0.00016767341217
|109>   H   -9.50425962457938     -0.69409088109167      0.00026687164944
|110>   H   -7.04027568972576     -0.68980140749936     -0.00005544925225
|111>   C   -5.45183741157070      1.49616229462644      0.00005614405431
|112>   C   -6.86437066397562      3.90865807672096      0.00059715121121
|113>   H   -9.54784882567221      3.59299899012176      0.00091076313657
|114>   H   -10.75737868171900      1.44626581403603      0.00074783188745
|115>   C   -5.49375285629476      3.90967522182525      0.00042517705822
|116>   C   -4.78028626336214      2.69100004727155      0.00015218718405
|117>   H   -7.41470937199301      4.84216327382740      0.00079951152285
|118>   H   -4.95071130646203      4.84645090655905      0.00050815101568
|119>   H   -3.69758703691443      2.70613312896136      0.00001676798628
|120> *
|121> 
|122> 
|123> 
|124> 
|125> 
|126>                          ****END OF INPUT****
================================================================================


                 $$$$$$$$$$$$$$$$$$$$$$$$$$$$$$$$$$$$$$$$$$$$$$ 
                 $ THERE ARE  3 JOBS TO BE PROCESSED THIS RUN $
                 $$$$$$$$$$$$$$$$$$$$$$$$$$$$$$$$$$$$$$$$$$$$$$ 




                 $$$$$$$$$$$$$$$$  JOB NUMBER  1 $$$$$$$$$$$$$$


                       ****************************
                       * Single Point Calculation *
                       ****************************

The geometry is being displaced to its center of mass!
---------------------------------
CARTESIAN COORDINATES (ANGSTROEM)
---------------------------------
  C     -1.733740   -1.833496   -0.000042
  C     -0.363122   -1.832464   -0.000224
  C      0.360544   -0.615878   -0.000142
  C     -0.360518    0.615872    0.000134
  C     -1.775623    0.579998    0.000316
  C     -2.447202   -0.614809    0.000232
  H      2.320369   -1.516848   -0.000544
  H     -2.276782   -2.770271   -0.000110
  H      0.187202   -2.765981   -0.000432
  C      1.775640   -0.580018   -0.000320
  C      0.363107    1.832478    0.000221
  H     -2.320371    1.516819    0.000534
  H     -3.529901   -0.629914    0.000371
  C      1.733725    1.833495    0.000049
  C      2.447192    0.614820   -0.000224
  H     -0.187232    2.765983    0.000423
  H      2.276767    2.770271    0.000132
  H      3.529891    0.629953   -0.000360

----------------------------
CARTESIAN COORDINATES (A.U.)
----------------------------
  NO LB      ZA    FRAG     MASS         X           Y           Z
   0 C     6.0000    0    12.011   -3.276294   -3.464806   -0.000079
   1 C     6.0000    0    12.011   -0.686200   -3.462856   -0.000424
   2 C     6.0000    0    12.011    0.681330   -1.163840   -0.000268
   3 C     6.0000    0    12.011   -0.681280    1.163830    0.000252
   4 C     6.0000    0    12.011   -3.355441    1.096037    0.000598
   5 C     6.0000    0    12.011   -4.624541   -1.161820    0.000438
   6 H     1.0000    0     1.008    4.384862   -2.866427   -0.001028
   7 H     1.0000    0     1.008   -4.302494   -5.235053   -0.000207
   8 H     1.0000    0     1.008    0.353761   -5.226947   -0.000816
   9 C     6.0000    0    12.011    3.355474   -1.096074   -0.000605
  10 C     6.0000    0    12.011    0.686173    3.462882    0.000417
  11 H     1.0000    0     1.008   -4.384866    2.866373    0.001010
  12 H     1.0000    0     1.008   -6.670546   -1.190365    0.000702
  13 C     6.0000    0    12.011    3.276265    3.464804    0.000092
  14 C     6.0000    0    12.011    4.624522    1.161842   -0.000424
  15 H     1.0000    0     1.008   -0.353816    5.226951    0.000799
  16 H     1.0000    0     1.008    4.302465    5.235054    0.000249
  17 H     1.0000    0     1.008    6.670527    1.190439   -0.000680

--------------------------------
INTERNAL COORDINATES (ANGSTROEM)
--------------------------------
 C      0   0   0     0.000000000000     0.00000000     0.00000000
 C      1   0   0     1.370618729215     0.00000000     0.00000000
 C      2   1   0     1.415547847961   120.78872804     0.00000000
 C      3   2   1     1.427283653073   118.90985599     0.00000000
 C      4   3   2     1.415559612641   118.89237357     0.00000000
 C      5   4   3     1.370613734879   120.79173451     0.00000000
 H      3   2   1     2.157002379189    96.05640884   180.00020823
 H      1   2   3     1.082792864616   120.14372570   179.99985320
 H      2   1   3     1.083655891826   120.47691903   179.99977039
 C      7   3   2     1.083688150208    35.13457172   180.00086861
 C      4   3   2     1.415543458952   118.91168837   179.99979670
 H      5   4   3     1.083690195232   118.72521347   179.99944983
 H      6   5   4     1.082804301117   120.13885846   180.00012170
 C     11   4   3     1.370618195885   120.78627157     0.00000000
 C     10   7   3     1.370626940137   120.48585441   180.00054876
 H     11   4   3     1.083653398240   118.73519446   179.99959498
 H     14  11   4     1.082793985594   120.14305325   180.00086116
 H     15  10   7     1.082804988652   120.13867409     0.00000000

---------------------------
INTERNAL COORDINATES (A.U.)
---------------------------
 C      0   0   0     0.000000000000     0.00000000     0.00000000
 C      1   0   0     2.590094032239     0.00000000     0.00000000
 C      2   1   0     2.674997762108   120.78872804     0.00000000
 C      3   2   1     2.697175219731   118.90985599     0.00000000
 C      4   3   2     2.675019994131   118.89237357     0.00000000
 C      5   4   3     2.590084594312   120.79173451     0.00000000
 H      3   2   1     4.076143766884    96.05640884   180.00020823
 H      1   2   3     2.046181973888   120.14372570   179.99985320
 H      2   1   3     2.047812858960   120.47691903   179.99977039
 C      7   3   2     2.047873818468    35.13457172   180.00086861
 C      4   3   2     2.674989468082   118.91168837   179.99979670
 H      5   4   3     2.047877683004   118.72521347   179.99944983
 H      6   5   4     2.046203585742   120.13885846   180.00012170
 C     11   4   3     2.590093024392   120.78627157     0.00000000
 C     10   7   3     2.590109548634   120.48585441   180.00054876
 H     11   4   3     2.047808146766   118.73519446   179.99959498
 H     14  11   4     2.046184092229   120.14305325   180.00086116
 H     15  10   7     2.046204884997   120.13867409     0.00000000

---------------------
BASIS SET INFORMATION
---------------------
There are 2 groups of distinct atoms

 Group   1 Type C   : 11s6p2d1f contracted to 5s3p2d1f pattern {62111/411/11/1}
 Group   2 Type H   : 5s1p contracted to 3s1p pattern {311/1}

Atom   0C    basis set group =>   1
Atom   1C    basis set group =>   1
Atom   2C    basis set group =>   1
Atom   3C    basis set group =>   1
Atom   4C    basis set group =>   1
Atom   5C    basis set group =>   1
Atom   6H    basis set group =>   2
Atom   7H    basis set group =>   2
Atom   8H    basis set group =>   2
Atom   9C    basis set group =>   1
Atom  10C    basis set group =>   1
Atom  11H    basis set group =>   2
Atom  12H    basis set group =>   2
Atom  13C    basis set group =>   1
Atom  14C    basis set group =>   1
Atom  15H    basis set group =>   2
Atom  16H    basis set group =>   2
Atom  17H    basis set group =>   2
---------------------------------
AUXILIARY/J BASIS SET INFORMATION
---------------------------------
There are 2 groups of distinct atoms

 Group   1 Type C   : 12s5p4d2f1g contracted to 6s4p3d1f1g pattern {711111/2111/211/2/1}
 Group   2 Type H   : 5s2p1d contracted to 3s1p1d pattern {311/2/1}

Atom   0C    basis set group =>   1
Atom   1C    basis set group =>   1
Atom   2C    basis set group =>   1
Atom   3C    basis set group =>   1
Atom   4C    basis set group =>   1
Atom   5C    basis set group =>   1
Atom   6H    basis set group =>   2
Atom   7H    basis set group =>   2
Atom   8H    basis set group =>   2
Atom   9C    basis set group =>   1
Atom  10C    basis set group =>   1
Atom  11H    basis set group =>   2
Atom  12H    basis set group =>   2
Atom  13C    basis set group =>   1
Atom  14C    basis set group =>   1
Atom  15H    basis set group =>   2
Atom  16H    basis set group =>   2
Atom  17H    basis set group =>   2
---------------------------------
AUXILIARY/C BASIS SET INFORMATION
---------------------------------
There are 2 groups of distinct atoms

 Group   1 Type C   : 8s6p5d3f1g contracted to 8s6p4d3f1g pattern {11111111/111111/2111/111/1}
 Group   2 Type H   : 4s3p2d contracted to 4s2p1d pattern {1111/21/2}

Atom   0C    basis set group =>   1
Atom   1C    basis set group =>   1
Atom   2C    basis set group =>   1
Atom   3C    basis set group =>   1
Atom   4C    basis set group =>   1
Atom   5C    basis set group =>   1
Atom   6H    basis set group =>   2
Atom   7H    basis set group =>   2
Atom   8H    basis set group =>   2
Atom   9C    basis set group =>   1
Atom  10C    basis set group =>   1
Atom  11H    basis set group =>   2
Atom  12H    basis set group =>   2
Atom  13C    basis set group =>   1
Atom  14C    basis set group =>   1
Atom  15H    basis set group =>   2
Atom  16H    basis set group =>   2
Atom  17H    basis set group =>   2
------------------------------------------------------------------------------
                           ORCA GTO INTEGRAL CALCULATION
                           -- RI-GTO INTEGRALS CHOSEN --
------------------------------------------------------------------------------
------------------------------------------------------------------------------
                   ___                                                        
                  /   \      - P O W E R E D   B Y -                         
                 /     \                                                     
                 |  |  |   _    _      __       _____    __    __             
                 |  |  |  | |  | |    /  \     |  _  \  |  |  /  |          
                  \  \/   | |  | |   /    \    | | | |  |  | /  /          
                 / \  \   | |__| |  /  /\  \   | |_| |  |  |/  /          
                |  |  |   |  __  | /  /__\  \  |    /   |      \           
                |  |  |   | |  | | |   __   |  |    \   |  |\   \          
                \     /   | |  | | |  |  |  |  | |\  \  |  | \   \       
                 \___/    |_|  |_| |__|  |__|  |_| \__\ |__|  \__/        
                                                                              
                      - O R C A' S   B I G   F R I E N D -                    
                                      &                                       
                       - I N T E G R A L  F E E D E R -                       
                                                                              
 v1 FN, 2020, v2 2021                                                         
------------------------------------------------------------------------------


Reading SHARK input file /scratch/dca0099.334548/Phos_TZVP_naphtalene.SHARKINP.tmp ... ok
----------------------
SHARK INTEGRAL PACKAGE
----------------------

Number of atoms                             ...     18
Number of basis functions                   ...    358
Number of shells                            ...    142
Maximum angular momentum                    ...      3
Integral batch strategy                     ... SHARK/LIBINT Hybrid
RI-J (if used) integral strategy            ... SPLIT-RIJ (Revised 2003 algorithm where possible)
Printlevel                                  ...      1
Contraction scheme used                     ... SEGMENTED contraction
Coulomb Range Separation                    ... NOT USED
Exchange Range Separation                   ... NOT USED
Finite Nucleus Model                        ... NOT USED
Auxiliary Coulomb fitting basis             ... AVAILABLE
   # of basis functions in Aux-J            ...    578
   # of shells in Aux-J                     ...    190
   Maximum angular momentum in Aux-J        ...      4
Auxiliary J/K fitting basis                 ... NOT available
Auxiliary Correlation fitting basis         ... AVAILABLE
   # of basis functions in Aux-C            ...    880
   # of shells in Aux-C                     ...    276
   Maximum angular momentum in Aux-C        ...      4
Auxiliary 'external' fitting basis          ... NOT available
Integral threshold                          ...     2.500000e-11
Primitive cut-off                           ...     2.500000e-12
Primitive pair pre-selection threshold      ...     2.500000e-12

Calculating pre-screening integrals         ... done (  0.2 sec) Dimension = 142
Organizing shell pair data                  ... done (  0.2 sec)
Shell pair information
Total number of shell pairs                 ...     10153
Shell pairs after pre-screening             ...      9202
Total number of primitive shell pairs       ...     31120
Primitive shell pairs kept                  ...     20969
          la=0 lb=0:   2378 shell pairs
          la=1 lb=0:   2554 shell pairs
          la=1 lb=1:    697 shell pairs
          la=2 lb=0:   1364 shell pairs
          la=2 lb=1:    728 shell pairs
          la=2 lb=2:    202 shell pairs
          la=3 lb=0:    668 shell pairs
          la=3 lb=1:    364 shell pairs
          la=3 lb=2:    192 shell pairs
          la=3 lb=3:     55 shell pairs

Calculating one electron integrals          ... done (  0.1 sec)
Calculating RI/J V-Matrix + Cholesky decomp.... done (  0.0 sec)
Calculating RI/C V-Matrix + Cholesky decomp.... done (  0.1 sec)
Calculating Nuclear repulsion               ... done (  0.0 sec) ENN=    459.060186556575 Eh

SHARK setup successfully completed in   1.1 seconds

Maximum memory used throughout the entire GTOINT-calculation: 140.7 MB
-------------------------------------------------------------------------------
                                 ORCA SCF
-------------------------------------------------------------------------------

------------
SCF SETTINGS
------------
Hamiltonian:
 Ab initio Hamiltonian  Method          .... Hartree-Fock(GTOs)
 RI-approximation to the Coulomb term is turned on
   Number of AuxJ basis functions       .... 578
   RIJ-COSX (HFX calculated with COS-X)).... on


General Settings:
 Integral files         IntName         .... /scratch/dca0099.334548/Phos_TZVP_naphtalene
 Hartree-Fock type      HFTyp           .... RHF
 Total Charge           Charge          ....    0
 Multiplicity           Mult            ....    1
 Number of Electrons    NEL             ....   68
 Basis Dimension        Dim             ....  358
 Nuclear Repulsion      ENuc            ....    459.0601865566 Eh

Convergence Acceleration:
 DIIS                   CNVDIIS         .... on
   Start iteration      DIISMaxIt       ....    12
   Startup error        DIISStart       ....  0.200000
   # of expansion vecs  DIISMaxEq       ....     5
   Bias factor          DIISBfac        ....   1.050
   Max. coefficient     DIISMaxC        ....  10.000
 Trust-Rad. Augm. Hess. CNVTRAH         .... auto
   Auto Start mean grad. ratio tolernc. ....  1.125000
   Auto Start start iteration           ....    20
   Auto Start num. interpolation iter.  ....    10
   Max. Number of Micro iterations      ....    16
   Max. Number of Macro iterations      .... Maxiter - #DIIS iter
   Number of Davidson start vectors     ....     2
   Converg. threshold I  (grad. norm)   ....   1.000e-05
   Converg. threshold II (energy diff.) ....   1.000e-08
   Grad. Scal. Fac. for Micro threshold ....   0.100
   Minimum threshold for Micro iter.    ....   0.010
   NR start threshold (gradient norm)   ....   0.001
   Initial trust radius                 ....   0.400
   Minimum AH scaling param. (alpha)    ....   1.000
   Maximum AH scaling param. (alpha)    .... 1000.000
   Orbital update algorithm             .... Taylor
   White noise on init. David. guess    .... on
   Maximum white noise                  ....   0.010
   Quad. conv. algorithm                .... NR
 SOSCF                  CNVSOSCF        .... on
   Start iteration      SOSCFMaxIt      ....   150
   Startup grad/error   SOSCFStart      ....  0.003300
 Level Shifting         CNVShift        .... on
   Level shift para.    LevelShift      ....    0.2500
   Turn off err/grad.   ShiftErr        ....    0.0010
 Zerner damping         CNVZerner       .... off
 Static damping         CNVDamp         .... on
   Fraction old density DampFac         ....    0.7000
   Max. Damping (<1)    DampMax         ....    0.9800
   Min. Damping (>=0)   DampMin         ....    0.0000
   Turn off err/grad.   DampErr         ....    0.1000
 Fernandez-Rico         CNVRico         .... off

SCF Procedure:
 Maximum # iterations   MaxIter         ....   125
 SCF integral mode      SCFMode         .... Direct
   Integral package                     .... SHARK and LIBINT hybrid scheme
 Reset frequency        DirectResetFreq ....    20
 Integral Threshold     Thresh          ....  2.500e-11 Eh
 Primitive CutOff       TCut            ....  2.500e-12 Eh

Convergence Tolerance:
 Convergence Check Mode ConvCheckMode   .... Total+1el-Energy
 Convergence forced     ConvForced      .... 1
 Energy Change          TolE            ....  1.000e-08 Eh
 1-El. energy change                    ....  1.000e-05 Eh
 Orbital Gradient       TolG            ....  1.000e-05
 Orbital Rotation angle TolX            ....  1.000e-05
 DIIS Error             TolErr          ....  5.000e-07


Diagonalization of the overlap matrix:
Smallest eigenvalue                        ... 6.497e-06
Time for diagonalization                   ...    0.063 sec
Threshold for overlap eigenvalues          ... 1.000e-08
Number of eigenvalues below threshold      ... 0
Time for construction of square roots      ...    0.017 sec
Total time needed                          ...    0.081 sec

Time for model grid setup =    0.639 sec

------------------------------
INITIAL GUESS: MODEL POTENTIAL
------------------------------
Loading Hartree-Fock densities                     ... done
Calculating cut-offs                               ... done
Initializing the effective Hamiltonian             ... done
Setting up the integral package (SHARK)            ... done
Starting the Coulomb interaction                   ... done (   1.0 sec)
Reading the grid                                   ... done
Mapping shells                                     ... done
Starting the XC term evaluation                    ... done (   0.5 sec)
Transforming the Hamiltonian                       ... done (   0.0 sec)
Diagonalizing the Hamiltonian                      ... done (   0.0 sec)
Back transforming the eigenvectors                 ... done (   0.0 sec)
Now organizing SCF variables                       ... done
                      ------------------
                      INITIAL GUESS DONE (   2.2 sec)
                      ------------------
--------------------
COSX GRID GENERATION
--------------------

GRIDX 1
-------
General Integration Accuracy     IntAcc      ... 3.816
Radial Grid Type                 RadialGrid  ... OptM3 with GC (2021)
Angular Grid (max. ang.)         AngularGrid ... 1 (Lebedev-50)
Angular grid pruning method      GridPruning ... 4 (adaptive)
Weight generation scheme         WeightScheme... Becke
Basis function cutoff            BFCut       ... 1.0000e-11
Integration weight cutoff        WCut        ... 1.0000e-14
Angular grids for H and He will be reduced by one unit
Partially contracted basis set               ... on
Rotationally invariant grid construction     ... off

Total number of grid points                  ...    10956
Total number of batches                      ...      176
Average number of points per batch           ...       62
Average number of grid points per atom       ...      609
UseSFitting                                  ... on

GRIDX 2
-------
General Integration Accuracy     IntAcc      ... 4.020
Radial Grid Type                 RadialGrid  ... OptM3 with GC (2021)
Angular Grid (max. ang.)         AngularGrid ... 2 (Lebedev-110)
Angular grid pruning method      GridPruning ... 4 (adaptive)
Weight generation scheme         WeightScheme... Becke
Basis function cutoff            BFCut       ... 1.0000e-11
Integration weight cutoff        WCut        ... 1.0000e-14
Angular grids for H and He will be reduced by one unit
Partially contracted basis set               ... on
Rotationally invariant grid construction     ... off

Total number of grid points                  ...    23850
Total number of batches                      ...      384
Average number of points per batch           ...       62
Average number of grid points per atom       ...     1325
UseSFitting                                  ... on

GRIDX 3
-------
General Integration Accuracy     IntAcc      ... 4.338
Radial Grid Type                 RadialGrid  ... OptM3 with GC (2021)
Angular Grid (max. ang.)         AngularGrid ... 3 (Lebedev-194)
Angular grid pruning method      GridPruning ... 4 (adaptive)
Weight generation scheme         WeightScheme... Becke
Basis function cutoff            BFCut       ... 1.0000e-11
Integration weight cutoff        WCut        ... 1.0000e-14
Angular grids for H and He will be reduced by one unit
Partially contracted basis set               ... on
Rotationally invariant grid construction     ... off

Total number of grid points                  ...    52490
Total number of batches                      ...      830
Average number of points per batch           ...       63
Average number of grid points per atom       ...     2916
UseSFitting                                  ... on

Time for X-Grid setup             =    2.026 sec


--------------------
CPCM SOLVATION MODEL
--------------------
CPCM parameters:
  Epsilon                                         ...       2.4000
  Refrac                                          ...       1.4970
  Rsolv                                           ...       1.3000
  Surface type                                    ... GAUSSIAN VDW
  Epsilon function type                           ...         CPCM
Radii:
 Radius for C  used is    3.8550 Bohr (=   2.0400 Ang.)
 Radius for H  used is    2.4944 Bohr (=   1.3200 Ang.)
Calculating surface                               ...        done! (  0.0s)
GEPOL surface points                              ...          996
GEPOL Volume                                      ...    1144.6715
GEPOL Surface-area                                ...     615.5680
Calculating surface distance matrix               ...        done! (  0.0s)
Performing Cholesky decomposition & store         ...        done! (  0.0s)
Overall time for CPCM initialization              ...                 0.0s
--------------
SCF ITERATIONS
--------------
ITER       Energy         Delta-E        Max-DP      RMS-DP      [F,P]     Damp
               ***  Starting incremental Fock matrix formation  ***
  0   -383.0914133718   0.000000000000 0.03064567  0.00089105  0.2240321 0.7000
  1   -383.2235597466  -0.132146374769 0.02586141  0.00071705  0.1639756 0.7000
                               ***Turning on DIIS***
  2   -383.3084386403  -0.084878893777 0.01937517  0.00051658  0.1196396 0.7000
  3   -384.5046127820  -1.196174141707 0.04874968  0.00129508  0.0876827 0.0000
  4   -383.4445930844   1.060019697648 0.00566738  0.00018867  0.0072966 0.0000
                      *** Initiating the SOSCF procedure ***
                           *** Shutting down DIIS ***
                      *** Re-Reading the Fockian *** 
                      *** Removing any level shift *** 
ITER      Energy       Delta-E        Grad      Rot      Max-DP    RMS-DP
  5   -383.48544138  -0.0408482920  0.002164  0.002164  0.002925  0.000087
               *** Restarting incremental Fock matrix formation ***
  6   -383.48923013  -0.0037887538  0.001223  0.002559  0.004768  0.000138
  7   -383.48926381  -0.0000336811  0.000646  0.002696  0.001489  0.000049
  8   -383.48927460  -0.0000107875  0.000092  0.000277  0.000537  0.000017
  9   -383.48927510  -0.0000005022  0.000033  0.000084  0.000197  0.000007
 10   -383.48927519  -0.0000000908  0.000005  0.000009  0.000028  0.000001
                  ***Gradient check signals convergence***
              ***Rediagonalizing the Fockian in SOSCF/NRSCF***

               *****************************************************
               *                     SUCCESS                       *
               *           SCF CONVERGED AFTER  11 CYCLES          *
               *****************************************************

Old exchange energy                            =    -54.799274744 Eh
New exchange energy                            =    -54.799123220 Eh
Exchange energy change after final integration =      0.000151524 Eh
Total energy after final integration           =   -383.489123663 Eh
Final COS-X integration done in                =    33.647 sec

----------------
TOTAL SCF ENERGY
----------------

Total Energy       :         -383.48912366 Eh          -10435.26957 eV

Components:
Nuclear Repulsion  :          459.06018656 Eh           12491.66274 eV
Electronic Energy  :         -842.54931022 Eh          -22926.93231 eV
One Electron Energy:        -1427.86568625 Eh          -38854.20063 eV
Two Electron Energy:          585.31637603 Eh           15927.26832 eV
Max COSX asymmetry :            0.00000530 Eh               0.00014 eV
CPCM Dielectric    :           -0.00459625 Eh              -0.12507 eV

Virial components:
Potential Energy   :         -766.61168756 Eh          -20860.56455 eV
Kinetic Energy     :          383.12256390 Eh           10425.29498 eV
Virial Ratio       :            2.00095677

CPCM Solvation Model Properties:
Surface-charge          :           -0.02719689
Charge-correction       :            0.00002041 Eh               0.00056 eV
Free-energy (cav+disp)  :  This term is not implemented in the current solvation scheme

---------------
SCF CONVERGENCE
---------------

  Last Energy change         ...    5.0918e-09  Tolerance :   1.0000e-08
  Last MAX-Density change    ...    1.7764e-15  Tolerance :   1.0000e-07
  Last RMS-Density change    ...    1.4747e-17  Tolerance :   5.0000e-09
  Last Orbital Gradient      ...    2.1114e-06  Tolerance :   1.0000e-05
  Last Orbital Rotation      ...    3.2210e-06  Tolerance :   1.0000e-05

             **** THE GBW FILE WAS UPDATED (/scratch/dca0099.334548/Phos_TZVP_naphtalene.gbw) ****
             **** DENSITY /scratch/dca0099.334548/Phos_TZVP_naphtalene.scfp WAS UPDATED ****
             **** ENERGY FILE WAS UPDATED (/scratch/dca0099.334548/Phos_TZVP_naphtalene.en.tmp) ****
             **** THE GBW FILE WAS UPDATED (/scratch/dca0099.334548/Phos_TZVP_naphtalene.gbw) ****
             **** DENSITY /scratch/dca0099.334548/Phos_TZVP_naphtalene.scfp WAS UPDATED ****
----------------
ORBITAL ENERGIES
----------------

  NO   OCC          E(Eh)            E(eV) 
   0   2.0000     -11.243095      -305.9402 
   1   2.0000     -11.242061      -305.9120 
   2   2.0000     -11.234816      -305.7149 
   3   2.0000     -11.234773      -305.7137 
   4   2.0000     -11.234528      -305.7071 
   5   2.0000     -11.234448      -305.7049 
   6   2.0000     -11.233427      -305.6771 
   7   2.0000     -11.233392      -305.6761 
   8   2.0000     -11.232643      -305.6557 
   9   2.0000     -11.232628      -305.6553 
  10   2.0000      -1.178687       -32.0737 
  11   2.0000      -1.111220       -30.2378 
  12   2.0000      -1.051844       -28.6221 
  13   2.0000      -1.009329       -27.4652 
  14   2.0000      -0.982021       -26.7222 
  15   2.0000      -0.854512       -23.2525 
  16   2.0000      -0.836967       -22.7750 
  17   2.0000      -0.811902       -22.0930 
  18   2.0000      -0.705946       -19.2098 
  19   2.0000      -0.699887       -19.0449 
  20   2.0000      -0.678521       -18.4635 
  21   2.0000      -0.622372       -16.9356 
  22   2.0000      -0.611968       -16.6525 
  23   2.0000      -0.585308       -15.9270 
  24   2.0000      -0.583025       -15.8649 
  25   2.0000      -0.563834       -15.3427 
  26   2.0000      -0.537261       -14.6196 
  27   2.0000      -0.523650       -14.2492 
  28   2.0000      -0.488867       -13.3027 
  29   2.0000      -0.476313       -12.9611 
  30   2.0000      -0.451417       -12.2837 
  31   2.0000      -0.388524       -10.5723 
  32   2.0000      -0.321640        -8.7523 
  33   2.0000      -0.291149        -7.9226 
  34   0.0000       0.081838         2.2269 
  35   0.0000       0.109202         2.9715 
  36   0.0000       0.154399         4.2014 
  37   0.0000       0.162718         4.4278 
  38   0.0000       0.170848         4.6490 
  39   0.0000       0.172210         4.6861 
  40   0.0000       0.196039         5.3345 
  41   0.0000       0.201075         5.4715 
  42   0.0000       0.208510         5.6738 
  43   0.0000       0.234631         6.3846 
  44   0.0000       0.239176         6.5083 
  45   0.0000       0.250622         6.8198 
  46   0.0000       0.257163         6.9978 
  47   0.0000       0.273944         7.4544 
  48   0.0000       0.285334         7.7643 
  49   0.0000       0.300509         8.1773 
  50   0.0000       0.308915         8.4060 
  51   0.0000       0.319815         8.7026 
  52   0.0000       0.322662         8.7801 
  53   0.0000       0.351625         9.5682 
  54   0.0000       0.351712         9.5706 
  55   0.0000       0.363273         9.8852 
  56   0.0000       0.371389        10.1060 
  57   0.0000       0.386819        10.5259 
  58   0.0000       0.402891        10.9632 
  59   0.0000       0.405976        11.0472 
  60   0.0000       0.411674        11.2022 
  61   0.0000       0.414339        11.2747 
  62   0.0000       0.447461        12.1760 
  63   0.0000       0.465823        12.6757 
  64   0.0000       0.467935        12.7332 
  65   0.0000       0.473873        12.8948 
  66   0.0000       0.481946        13.1144 
  67   0.0000       0.482508        13.1297 
  68   0.0000       0.490318        13.3422 
  69   0.0000       0.492879        13.4119 
  70   0.0000       0.499846        13.6015 
  71   0.0000       0.515053        14.0153 
  72   0.0000       0.524745        14.2790 
  73   0.0000       0.553555        15.0630 
  74   0.0000       0.554265        15.0823 
  75   0.0000       0.566434        15.4135 
  76   0.0000       0.568233        15.4624 
  77   0.0000       0.580123        15.7859 
  78   0.0000       0.595849        16.2139 
  79   0.0000       0.600621        16.3437 
  80   0.0000       0.604208        16.4413 
  81   0.0000       0.610404        16.6099 
  82   0.0000       0.615502        16.7487 
  83   0.0000       0.630188        17.1483 
  84   0.0000       0.641775        17.4636 
  85   0.0000       0.651306        17.7229 
  86   0.0000       0.657048        17.8792 
  87   0.0000       0.669955        18.2304 
  88   0.0000       0.683146        18.5894 
  89   0.0000       0.704805        19.1787 
  90   0.0000       0.713372        19.4118 
  91   0.0000       0.732520        19.9329 
  92   0.0000       0.746005        20.2998 
  93   0.0000       0.750233        20.4149 
  94   0.0000       0.805606        21.9217 
  95   0.0000       0.830907        22.6101 
  96   0.0000       0.842722        22.9316 
  97   0.0000       0.854452        23.2508 
  98   0.0000       0.862516        23.4703 
  99   0.0000       0.880060        23.9476 
 100   0.0000       0.883259        24.0347 
 101   0.0000       0.897520        24.4228 
 102   0.0000       0.916649        24.9433 
 103   0.0000       0.921810        25.0837 
 104   0.0000       0.927418        25.2363 
 105   0.0000       0.928269        25.2595 
 106   0.0000       0.936042        25.4710 
 107   0.0000       0.938020        25.5248 
 108   0.0000       0.980077        26.6692 
 109   0.0000       0.989713        26.9314 
 110   0.0000       1.013751        27.5856 
 111   0.0000       1.030307        28.0361 
 112   0.0000       1.038662        28.2634 
 113   0.0000       1.051527        28.6135 
 114   0.0000       1.058990        28.8166 
 115   0.0000       1.097638        29.8682 
 116   0.0000       1.101438        29.9717 
 117   0.0000       1.102650        30.0046 
 118   0.0000       1.116110        30.3709 
 119   0.0000       1.118199        30.4277 
 120   0.0000       1.167790        31.7772 
 121   0.0000       1.187970        32.3263 
 122   0.0000       1.200140        32.6575 
 123   0.0000       1.200589        32.6697 
 124   0.0000       1.206933        32.8423 
 125   0.0000       1.269985        34.5580 
 126   0.0000       1.294455        35.2239 
 127   0.0000       1.331689        36.2371 
 128   0.0000       1.353592        36.8331 
 129   0.0000       1.366692        37.1896 
 130   0.0000       1.379563        37.5398 
 131   0.0000       1.389209        37.8023 
 132   0.0000       1.412317        38.4311 
 133   0.0000       1.437441        39.1148 
 134   0.0000       1.440489        39.1977 
 135   0.0000       1.444711        39.3126 
 136   0.0000       1.452877        39.5348 
 137   0.0000       1.460810        39.7507 
 138   0.0000       1.467782        39.9404 
 139   0.0000       1.483374        40.3647 
 140   0.0000       1.485674        40.4272 
 141   0.0000       1.512255        41.1506 
 142   0.0000       1.512496        41.1571 
 143   0.0000       1.599913        43.5358 
 144   0.0000       1.606890        43.7257 
 145   0.0000       1.638441        44.5842 
 146   0.0000       1.645109        44.7657 
 147   0.0000       1.650247        44.9055 
 148   0.0000       1.652660        44.9712 
 149   0.0000       1.701852        46.3097 
 150   0.0000       1.733489        47.1706 
 151   0.0000       1.754557        47.7439 
 152   0.0000       1.758347        47.8471 
 153   0.0000       1.764622        48.0178 
 154   0.0000       1.766001        48.0553 
 155   0.0000       1.781550        48.4784 
 156   0.0000       1.795282        48.8521 
 157   0.0000       1.799598        48.9696 
 158   0.0000       1.829737        49.7897 
 159   0.0000       1.835471        49.9457 
 160   0.0000       1.845945        50.2307 
 161   0.0000       1.879560        51.1454 
 162   0.0000       1.900165        51.7061 
 163   0.0000       1.919702        52.2377 
 164   0.0000       1.960166        53.3388 
 165   0.0000       1.963229        53.4222 
 166   0.0000       1.976376        53.7799 
 167   0.0000       1.982129        53.9365 
 168   0.0000       1.989180        54.1283 
 169   0.0000       1.993097        54.2349 
 170   0.0000       1.999503        54.4092 
 171   0.0000       2.023579        55.0644 
 172   0.0000       2.030323        55.2479 
 173   0.0000       2.047260        55.7088 
 174   0.0000       2.128556        57.9210 
 175   0.0000       2.130899        57.9847 
 176   0.0000       2.144699        58.3602 
 177   0.0000       2.172124        59.1065 
 178   0.0000       2.197696        59.8023 
 179   0.0000       2.235665        60.8355 
 180   0.0000       2.250855        61.2489 
 181   0.0000       2.266569        61.6765 
 182   0.0000       2.289593        62.3030 
 183   0.0000       2.296212        62.4831 
 184   0.0000       2.304896        62.7194 
 185   0.0000       2.335082        63.5408 
 186   0.0000       2.394297        65.1521 
 187   0.0000       2.431481        66.1640 
 188   0.0000       2.442019        66.4507 
 189   0.0000       2.450745        66.6882 
 190   0.0000       2.485813        67.6424 
 191   0.0000       2.488404        67.7129 
 192   0.0000       2.508532        68.2606 
 193   0.0000       2.517890        68.5153 
 194   0.0000       2.561929        69.7136 
 195   0.0000       2.563302        69.7510 
 196   0.0000       2.575308        70.0777 
 197   0.0000       2.576542        70.1113 
 198   0.0000       2.615115        71.1609 
 199   0.0000       2.639139        71.8146 
 200   0.0000       2.693149        73.2843 
 201   0.0000       2.721140        74.0460 
 202   0.0000       2.751458        74.8710 
 203   0.0000       2.757865        75.0453 
 204   0.0000       2.767714        75.3133 
 205   0.0000       2.774083        75.4866 
 206   0.0000       2.873023        78.1789 
 207   0.0000       2.873142        78.1822 
 208   0.0000       2.889019        78.6142 
 209   0.0000       2.893013        78.7229 
 210   0.0000       2.897966        78.8577 
 211   0.0000       2.916898        79.3728 
 212   0.0000       2.931664        79.7746 
 213   0.0000       2.947115        80.1951 
 214   0.0000       2.963953        80.6533 
 215   0.0000       2.968695        80.7823 
 216   0.0000       2.972016        80.8727 
 217   0.0000       2.977601        81.0247 
 218   0.0000       3.017715        82.1162 
 219   0.0000       3.026237        82.3481 
 220   0.0000       3.052768        83.0700 
 221   0.0000       3.057714        83.2046 
 222   0.0000       3.067220        83.4633 
 223   0.0000       3.088601        84.0451 
 224   0.0000       3.092577        84.1533 
 225   0.0000       3.098435        84.3127 
 226   0.0000       3.107946        84.5715 
 227   0.0000       3.117088        84.8203 
 228   0.0000       3.123461        84.9937 
 229   0.0000       3.123677        84.9996 
 230   0.0000       3.139589        85.4326 
 231   0.0000       3.161207        86.0208 
 232   0.0000       3.194453        86.9255 
 233   0.0000       3.196817        86.9898 
 234   0.0000       3.205494        87.2259 
 235   0.0000       3.230954        87.9187 
 236   0.0000       3.231416        87.9313 
 237   0.0000       3.246340        88.3374 
 238   0.0000       3.262349        88.7730 
 239   0.0000       3.272254        89.0426 
 240   0.0000       3.287189        89.4490 
 241   0.0000       3.295376        89.6717 
 242   0.0000       3.325892        90.5021 
 243   0.0000       3.327834        90.5550 
 244   0.0000       3.332121        90.6716 
 245   0.0000       3.335332        90.7590 
 246   0.0000       3.361432        91.4692 
 247   0.0000       3.403287        92.6082 
 248   0.0000       3.427256        93.2604 
 249   0.0000       3.450352        93.8888 
 250   0.0000       3.458286        94.1047 
 251   0.0000       3.469378        94.4066 
 252   0.0000       3.479012        94.6687 
 253   0.0000       3.483440        94.7892 
 254   0.0000       3.511694        95.5581 
 255   0.0000       3.539734        96.3211 
 256   0.0000       3.539833        96.3238 
 257   0.0000       3.543918        96.4349 
 258   0.0000       3.558571        96.8337 
 259   0.0000       3.560115        96.8757 
 260   0.0000       3.579224        97.3956 
 261   0.0000       3.586781        97.6013 
 262   0.0000       3.588247        97.6412 
 263   0.0000       3.600721        97.9806 
 264   0.0000       3.646324        99.2215 
 265   0.0000       3.662110        99.6511 
 266   0.0000       3.662301        99.6563 
 267   0.0000       3.664291        99.7104 
 268   0.0000       3.683257       100.2265 
 269   0.0000       3.690377       100.4203 
 270   0.0000       3.711119       100.9847 
 271   0.0000       3.711798       101.0032 
 272   0.0000       3.741985       101.8246 
 273   0.0000       3.773743       102.6888 
 274   0.0000       3.781511       102.9002 
 275   0.0000       3.789249       103.1107 
 276   0.0000       3.808830       103.6435 
 277   0.0000       3.816721       103.8583 
 278   0.0000       3.823893       104.0534 
 279   0.0000       3.828891       104.1894 
 280   0.0000       3.853585       104.8614 
 281   0.0000       3.872514       105.3765 
 282   0.0000       3.904584       106.2491 
 283   0.0000       3.912270       106.4583 
 284   0.0000       3.931012       106.9683 
 285   0.0000       3.939210       107.1914 
 286   0.0000       3.953770       107.5876 
 287   0.0000       3.980106       108.3042 
 288   0.0000       4.008469       109.0760 
 289   0.0000       4.047277       110.1320 
 290   0.0000       4.049141       110.1827 
 291   0.0000       4.119825       112.1061 
 292   0.0000       4.175063       113.6092 
 293   0.0000       4.178271       113.6965 
 294   0.0000       4.194408       114.1356 
 295   0.0000       4.199551       114.2756 
 296   0.0000       4.221747       114.8796 
 297   0.0000       4.262436       115.9868 
 298   0.0000       4.293711       116.8378 
 299   0.0000       4.308295       117.2347 
 300   0.0000       4.330492       117.8387 
 301   0.0000       4.344798       118.2280 
 302   0.0000       4.385672       119.3402 
 303   0.0000       4.410640       120.0196 
 304   0.0000       4.438875       120.7879 
 305   0.0000       4.483134       121.9923 
 306   0.0000       4.501618       122.4953 
 307   0.0000       4.506799       122.6362 
 308   0.0000       4.518659       122.9590 
 309   0.0000       4.530623       123.2845 
 310   0.0000       4.534551       123.3914 
 311   0.0000       4.576817       124.5415 
 312   0.0000       4.611672       125.4900 
 313   0.0000       4.620564       125.7319 
 314   0.0000       4.635582       126.1406 
 315   0.0000       4.637275       126.1867 
 316   0.0000       4.650977       126.5595 
 317   0.0000       4.707130       128.0875 
 318   0.0000       4.720449       128.4500 
 319   0.0000       4.764801       129.6568 
 320   0.0000       4.814577       131.0113 
 321   0.0000       4.827655       131.3672 
 322   0.0000       4.875491       132.6689 
 323   0.0000       4.890609       133.0802 
 324   0.0000       4.925653       134.0338 
 325   0.0000       5.023419       136.6942 
 326   0.0000       5.090582       138.5218 
 327   0.0000       5.110313       139.0587 
 328   0.0000       5.113451       139.1441 
 329   0.0000       5.130258       139.6014 
 330   0.0000       5.155820       140.2970 
 331   0.0000       5.171857       140.7334 
 332   0.0000       5.214099       141.8829 
 333   0.0000       5.275134       143.5437 
 334   0.0000       5.347290       145.5072 
 335   0.0000       5.442817       148.1066 
 336   0.0000       5.452583       148.3723 
 337   0.0000       5.477793       149.0583 
 338   0.0000       5.489121       149.3666 
 339   0.0000       5.587917       152.0549 
 340   0.0000       5.626657       153.1091 
 341   0.0000       5.757118       156.6591 
 342   0.0000       5.763665       156.8373 
 343   0.0000       5.805978       157.9887 
 344   0.0000       5.985786       162.8815 
 345   0.0000       6.005120       163.4076 
 346   0.0000       6.064538       165.0245 
 347   0.0000       6.341466       172.5600 
 348   0.0000      22.931534       623.9988 
 349   0.0000      23.660012       643.8217 
 350   0.0000      23.730933       645.7515 
 351   0.0000      23.751962       646.3237 
 352   0.0000      23.799797       647.6254 
 353   0.0000      23.829996       648.4472 
 354   0.0000      23.957577       651.9188 
 355   0.0000      24.051901       654.4855 
 356   0.0000      24.152680       657.2278 
 357   0.0000      24.710850       672.4164 

                    ********************************
                    * MULLIKEN POPULATION ANALYSIS *
                    ********************************

-----------------------
MULLIKEN ATOMIC CHARGES
-----------------------
   0 C :   -0.123095
   1 C :   -0.253490
   2 C :    0.181285
   3 C :    0.181560
   4 C :   -0.246940
   5 C :   -0.129898
   6 H :    0.143027
   7 H :    0.144459
   8 H :    0.141646
   9 C :   -0.246594
  10 C :   -0.253416
  11 H :    0.142945
  12 H :    0.142950
  13 C :   -0.123374
  14 C :   -0.130014
  15 H :    0.141622
  16 H :    0.144379
  17 H :    0.142949
Sum of atomic charges:    0.0000000

--------------------------------
MULLIKEN REDUCED ORBITAL CHARGES
--------------------------------
  0 C s       :     3.120871  s :     3.120871
      pz      :     0.964770  p :     2.893244
      px      :     0.959083
      py      :     0.969391
      dz2     :     0.005089  d :     0.100327
      dxz     :     0.021099
      dyz     :     0.010331
      dx2y2   :     0.031241
      dxy     :     0.032566
      f0      :     0.001618  f :     0.008653
      f+1     :     0.000870
      f-1     :     0.000921
      f+2     :     0.000991
      f-2     :     0.000413
      f+3     :     0.001876
      f-3     :     0.001964
  1 C s       :     3.206578  s :     3.206578
      pz      :     0.970305  p :     2.932637
      px      :     0.990732
      py      :     0.971600
      dz2     :     0.004415  d :     0.105643
      dxz     :     0.022976
      dyz     :     0.009614
      dx2y2   :     0.033175
      dxy     :     0.035464
      f0      :     0.001582  f :     0.008633
      f+1     :     0.000909
      f-1     :     0.000871
      f+2     :     0.000846
      f-2     :     0.000475
      f+3     :     0.001871
      f-3     :     0.002078
  2 C s       :     3.112703  s :     3.112703
      pz      :     0.922657  p :     2.541939
      px      :     0.810743
      py      :     0.808539
      dz2     :     0.005523  d :     0.152535
      dxz     :     0.025126
      dyz     :     0.021953
      dx2y2   :     0.046942
      dxy     :     0.052990
      f0      :     0.001954  f :     0.011539
      f+1     :     0.001096
      f-1     :     0.001046
      f+2     :     0.000903
      f-2     :     0.001026
      f+3     :     0.002217
      f-3     :     0.003296
  3 C s       :     3.113098  s :     3.113098
      pz      :     0.922656  p :     2.541408
      px      :     0.810458
      py      :     0.808294
      dz2     :     0.005537  d :     0.152395
      dxz     :     0.025123
      dyz     :     0.021955
      dx2y2   :     0.046834
      dxy     :     0.052946
      f0      :     0.001954  f :     0.011540
      f+1     :     0.001096
      f-1     :     0.001046
      f+2     :     0.000903
      f-2     :     0.001026
      f+3     :     0.002216
      f-3     :     0.003298
  4 C s       :     3.199904  s :     3.199904
      pz      :     0.970466  p :     2.932571
      px      :     0.934746
      py      :     1.027359
      dz2     :     0.004462  d :     0.105826
      dxz     :     0.019747
      dyz     :     0.012876
      dx2y2   :     0.036571
      dxy     :     0.032170
      f0      :     0.001584  f :     0.008639
      f+1     :     0.000890
      f-1     :     0.000889
      f+2     :     0.000863
      f-2     :     0.000459
      f+3     :     0.001884
      f-3     :     0.002071
  5 C s       :     3.127880  s :     3.127880
      pz      :     0.964380  p :     2.892962
      px      :     0.987285
      py      :     0.941297
      dz2     :     0.005125  d :     0.100407
      dxz     :     0.006543
      dyz     :     0.024832
      dx2y2   :     0.030260
      dxy     :     0.033648
      f0      :     0.001611  f :     0.008648
      f+1     :     0.000881
      f-1     :     0.000910
      f+2     :     0.000237
      f-2     :     0.001162
      f+3     :     0.001887
      f-3     :     0.001960
  6 H s       :     0.833658  s :     0.833658
      pz      :     0.004135  p :     0.023315
      px      :     0.006489
      py      :     0.012691
  7 H s       :     0.832099  s :     0.832099
      pz      :     0.004170  p :     0.023442
      px      :     0.006319
      py      :     0.012954
  8 H s       :     0.835000  s :     0.835000
      pz      :     0.004133  p :     0.023354
      px      :     0.006299
      py      :     0.012922
  9 C s       :     3.199323  s :     3.199323
      pz      :     0.970464  p :     2.932756
      px      :     0.935059
      py      :     1.027233
      dz2     :     0.004461  d :     0.105878
      dxz     :     0.019745
      dyz     :     0.012876
      dx2y2   :     0.036625
      dxy     :     0.032170
      f0      :     0.001584  f :     0.008637
      f+1     :     0.000890
      f-1     :     0.000889
      f+2     :     0.000863
      f-2     :     0.000459
      f+3     :     0.001883
      f-3     :     0.002070
 10 C s       :     3.206382  s :     3.206382
      pz      :     0.970299  p :     2.932686
      px      :     0.990613
      py      :     0.971774
      dz2     :     0.004408  d :     0.105716
      dxz     :     0.022977
      dyz     :     0.009614
      dx2y2   :     0.033211
      dxy     :     0.035507
      f0      :     0.001582  f :     0.008632
      f+1     :     0.000909
      f-1     :     0.000871
      f+2     :     0.000846
      f-2     :     0.000475
      f+3     :     0.001871
      f-3     :     0.002077
 11 H s       :     0.833741  s :     0.833741
      pz      :     0.004135  p :     0.023314
      px      :     0.006489
      py      :     0.012690
 12 H s       :     0.833613  s :     0.833613
      pz      :     0.004170  p :     0.023436
      px      :     0.016149
      py      :     0.003117
 13 C s       :     3.121406  s :     3.121406
      pz      :     0.964767  p :     2.892977
      px      :     0.959050
      py      :     0.969160
      dz2     :     0.005090  d :     0.100338
      dxz     :     0.021099
      dyz     :     0.010333
      dx2y2   :     0.031237
      dxy     :     0.032579
      f0      :     0.001618  f :     0.008653
      f+1     :     0.000870
      f-1     :     0.000921
      f+2     :     0.000991
      f-2     :     0.000413
      f+3     :     0.001875
      f-3     :     0.001964
 14 C s       :     3.128383  s :     3.128383
      pz      :     0.964377  p :     2.892590
      px      :     0.986985
      py      :     0.941227
      dz2     :     0.005134  d :     0.100391
      dxz     :     0.006544
      dyz     :     0.024833
      dx2y2   :     0.030253
      dxy     :     0.033628
      f0      :     0.001611  f :     0.008649
      f+1     :     0.000881
      f-1     :     0.000910
      f+2     :     0.000237
      f-2     :     0.001162
      f+3     :     0.001888
      f-3     :     0.001961
 15 H s       :     0.835024  s :     0.835024
      pz      :     0.004133  p :     0.023355
      px      :     0.006298
      py      :     0.012924
 16 H s       :     0.832178  s :     0.832178
      pz      :     0.004169  p :     0.023443
      px      :     0.006320
      py      :     0.012953
 17 H s       :     0.833614  s :     0.833614
      pz      :     0.004170  p :     0.023438
      px      :     0.016151
      py      :     0.003117


                     *******************************
                     * LOEWDIN POPULATION ANALYSIS *
                     *******************************

----------------------
LOEWDIN ATOMIC CHARGES
----------------------
   0 C :   -0.141025
   1 C :   -0.102039
   2 C :   -0.095138
   3 C :   -0.095131
   4 C :   -0.102104
   5 C :   -0.140971
   6 H :    0.147204
   7 H :    0.143464
   8 H :    0.147200
   9 C :   -0.102100
  10 C :   -0.102038
  11 H :    0.147203
  12 H :    0.143400
  13 C :   -0.141028
  14 C :   -0.140964
  15 H :    0.147200
  16 H :    0.143466
  17 H :    0.143401

-------------------------------
LOEWDIN REDUCED ORBITAL CHARGES
-------------------------------
  0 C s       :     2.759301  s :     2.759301
      pz      :     0.882416  p :     2.940612
      px      :     1.057480
      py      :     1.000715
      dz2     :     0.026181  d :     0.398511
      dxz     :     0.064356
      dyz     :     0.032276
      dx2y2   :     0.118324
      dxy     :     0.157375
      f0      :     0.002949  f :     0.042601
      f+1     :     0.003920
      f-1     :     0.003238
      f+2     :     0.006088
      f-2     :     0.002680
      f+3     :     0.008378
      f-3     :     0.015350
  1 C s       :     2.751842  s :     2.751842
      pz      :     0.879537  p :     2.914208
      px      :     1.048441
      py      :     0.986230
      dz2     :     0.026178  d :     0.394177
      dxz     :     0.066509
      dyz     :     0.028887
      dx2y2   :     0.115765
      dxy     :     0.156838
      f0      :     0.002928  f :     0.041812
      f+1     :     0.003825
      f-1     :     0.003236
      f+2     :     0.005449
      f-2     :     0.002824
      f+3     :     0.008416
      f-3     :     0.015134
  2 C s       :     2.685191  s :     2.685191
      pz      :     0.830229  p :     2.829668
      px      :     0.999909
      py      :     0.999530
      dz2     :     0.034506  d :     0.523163
      dxz     :     0.076910
      dyz     :     0.070665
      dx2y2   :     0.171817
      dxy     :     0.169265
      f0      :     0.003733  f :     0.057116
      f+1     :     0.003979
      f-1     :     0.003948
      f+2     :     0.006298
      f-2     :     0.006800
      f+3     :     0.009809
      f-3     :     0.022550
  3 C s       :     2.685191  s :     2.685191
      pz      :     0.830229  p :     2.829665
      px      :     0.999902
      py      :     0.999534
      dz2     :     0.034506  d :     0.523159
      dxz     :     0.076907
      dyz     :     0.070667
      dx2y2   :     0.171818
      dxy     :     0.169260
      f0      :     0.003733  f :     0.057116
      f+1     :     0.003979
      f-1     :     0.003948
      f+2     :     0.006298
      f-2     :     0.006799
      f+3     :     0.009809
      f-3     :     0.022550
  4 C s       :     2.751832  s :     2.751832
      pz      :     0.879593  p :     2.914262
      px      :     1.015761
      py      :     1.018909
      dz2     :     0.026184  d :     0.394200
      dxz     :     0.063456
      dyz     :     0.031955
      dx2y2   :     0.124660
      dxy     :     0.147945
      f0      :     0.002928  f :     0.041810
      f+1     :     0.003723
      f-1     :     0.003337
      f+2     :     0.005671
      f-2     :     0.002600
      f+3     :     0.008449
      f-3     :     0.015101
  5 C s       :     2.759327  s :     2.759327
      pz      :     0.882339  p :     2.940520
      px      :     0.989737
      py      :     1.068444
      dz2     :     0.026182  d :     0.398527
      dxz     :     0.013537
      dyz     :     0.083103
      dx2y2   :     0.169680
      dxy     :     0.106024
      f0      :     0.002948  f :     0.042597
      f+1     :     0.003025
      f-1     :     0.004135
      f+2     :     0.001282
      f-2     :     0.007483
      f+3     :     0.008377
      f-3     :     0.015347
  6 H s       :     0.793643  s :     0.793643
      pz      :     0.012959  p :     0.059153
      px      :     0.016692
      py      :     0.029502
  7 H s       :     0.797381  s :     0.797381
      pz      :     0.012830  p :     0.059155
      px      :     0.016211
      py      :     0.030113
  8 H s       :     0.793640  s :     0.793640
      pz      :     0.012960  p :     0.059160
      px      :     0.016279
      py      :     0.029921
  9 C s       :     2.751832  s :     2.751832
      pz      :     0.879592  p :     2.914263
      px      :     1.015765
      py      :     1.018907
      dz2     :     0.026183  d :     0.394194
      dxz     :     0.063454
      dyz     :     0.031955
      dx2y2   :     0.124658
      dxy     :     0.147944
      f0      :     0.002928  f :     0.041810
      f+1     :     0.003723
      f-1     :     0.003338
      f+2     :     0.005672
      f-2     :     0.002600
      f+3     :     0.008449
      f-3     :     0.015101
 10 C s       :     2.751841  s :     2.751841
      pz      :     0.879532  p :     2.914206
      px      :     1.048442
      py      :     0.986232
      dz2     :     0.026177  d :     0.394178
      dxz     :     0.066507
      dyz     :     0.028888
      dx2y2   :     0.115766
      dxy     :     0.156839
      f0      :     0.002928  f :     0.041813
      f+1     :     0.003825
      f-1     :     0.003236
      f+2     :     0.005449
      f-2     :     0.002824
      f+3     :     0.008416
      f-3     :     0.015135
 11 H s       :     0.793645  s :     0.793645
      pz      :     0.012959  p :     0.059152
      px      :     0.016692
      py      :     0.029501
 12 H s       :     0.797451  s :     0.797451
      pz      :     0.012829  p :     0.059149
      px      :     0.036544
      py      :     0.009776
 13 C s       :     2.759299  s :     2.759299
      pz      :     0.882414  p :     2.940612
      px      :     1.057480
      py      :     1.000717
      dz2     :     0.026181  d :     0.398515
      dxz     :     0.064357
      dyz     :     0.032276
      dx2y2   :     0.118324
      dxy     :     0.157377
      f0      :     0.002949  f :     0.042602
      f+1     :     0.003920
      f-1     :     0.003238
      f+2     :     0.006088
      f-2     :     0.002680
      f+3     :     0.008378
      f-3     :     0.015350
 14 C s       :     2.759329  s :     2.759329
      pz      :     0.882338  p :     2.940514
      px      :     0.989734
      py      :     1.068442
      dz2     :     0.026183  d :     0.398525
      dxz     :     0.013537
      dyz     :     0.083104
      dx2y2   :     0.169679
      dxy     :     0.106023
      f0      :     0.002948  f :     0.042596
      f+1     :     0.003025
      f-1     :     0.004135
      f+2     :     0.001282
      f-2     :     0.007483
      f+3     :     0.008377
      f-3     :     0.015347
 15 H s       :     0.793640  s :     0.793640
      pz      :     0.012960  p :     0.059160
      px      :     0.016279
      py      :     0.029921
 16 H s       :     0.797380  s :     0.797380
      pz      :     0.012830  p :     0.059154
      px      :     0.016211
      py      :     0.030113
 17 H s       :     0.797451  s :     0.797451
      pz      :     0.012829  p :     0.059148
      px      :     0.036543
      py      :     0.009776


                      *****************************
                      * MAYER POPULATION ANALYSIS *
                      *****************************

  NA   - Mulliken gross atomic population
  ZA   - Total nuclear charge
  QA   - Mulliken gross atomic charge
  VA   - Mayer's total valence
  BVA  - Mayer's bonded valence
  FA   - Mayer's free valence

  ATOM       NA         ZA         QA         VA         BVA        FA
  0 C      6.1231     6.0000    -0.1231     3.8888     3.8888     0.0000
  1 C      6.2535     6.0000    -0.2535     3.9066     3.9066     0.0000
  2 C      5.8187     6.0000     0.1813     3.7700     3.7700     0.0000
  3 C      5.8184     6.0000     0.1816     3.7696     3.7696     0.0000
  4 C      6.2469     6.0000    -0.2469     3.9002     3.9002     0.0000
  5 C      6.1299     6.0000    -0.1299     3.8960     3.8960    -0.0000
  6 H      0.8570     1.0000     0.1430     0.9690     0.9690    -0.0000
  7 H      0.8555     1.0000     0.1445     0.9663     0.9663     0.0000
  8 H      0.8584     1.0000     0.1416     0.9696     0.9696     0.0000
  9 C      6.2466     6.0000    -0.2466     3.9007     3.9007     0.0000
 10 C      6.2534     6.0000    -0.2534     3.9066     3.9066    -0.0000
 11 H      0.8571     1.0000     0.1429     0.9690     0.9690     0.0000
 12 H      0.8570     1.0000     0.1430     0.9675     0.9675    -0.0000
 13 C      6.1234     6.0000    -0.1234     3.8881     3.8881    -0.0000
 14 C      6.1300     6.0000    -0.1300     3.8953     3.8953     0.0000
 15 H      0.8584     1.0000     0.1416     0.9696     0.9696    -0.0000
 16 H      0.8556     1.0000     0.1444     0.9663     0.9663    -0.0000
 17 H      0.8571     1.0000     0.1429     0.9675     0.9675    -0.0000

  Mayer bond orders larger than 0.100000
B(  0-C ,  1-C ) :   1.5926 B(  0-C ,  5-C ) :   1.2323 B(  0-C ,  7-H ) :   0.9847 
B(  1-C ,  2-C ) :   1.2433 B(  1-C ,  8-H ) :   0.9876 B(  2-C ,  3-C ) :   1.3347 
B(  2-C ,  9-C ) :   1.2444 B(  3-C ,  4-C ) :   1.2433 B(  3-C , 10-C ) :   1.2440 
B(  4-C ,  5-C ) :   1.5937 B(  4-C , 11-H ) :   0.9852 B(  5-C , 12-H ) :   0.9858 
B(  6-H ,  9-C ) :   0.9849 B(  9-C , 14-C ) :   1.5934 B( 10-C , 13-C ) :   1.5922 
B( 10-C , 15-H ) :   0.9875 B( 13-C , 14-C ) :   1.2318 B( 13-C , 16-H ) :   0.9849 
B( 14-C , 17-H ) :   0.9859 

-------
TIMINGS
-------

Total SCF time: 0 days 0 hours 3 min 21 sec 

Total time                  ....     201.324 sec
Sum of individual times     ....     200.674 sec  ( 99.7%)

Fock matrix formation       ....     196.192 sec  ( 97.5%)
  Split-RI-J                ....      14.172 sec  (  7.2% of F)
  Chain of spheres X        ....     165.560 sec  ( 84.4% of F)
Diagonalization             ....       0.139 sec  (  0.1%)
Density matrix formation    ....       0.016 sec  (  0.0%)
Population analysis         ....       0.016 sec  (  0.0%)
Initial guess               ....       1.516 sec  (  0.8%)
Orbital Transformation      ....       0.000 sec  (  0.0%)
Orbital Orthonormalization  ....       0.000 sec  (  0.0%)
DIIS solution               ....       0.043 sec  (  0.0%)
SOSCF solution              ....       0.086 sec  (  0.0%)

Maximum memory used throughout the entire SCF-calculation: 216.0 MB


--------------------------------------------------------------------------------
                             ORCA-MATRIX DRIVEN CI
--------------------------------------------------------------------------------


Wavefunction type
-----------------
Correlation treatment                      ...      CCSD     
Single excitations                         ... ON
Orbital optimization                       ... OFF
Calculation of Z vector                    ... OFF
Calculation of Brueckner orbitals          ... OFF
Perturbative triple excitations            ... OFF
Calculation of F12 correction              ... OFF
Frozen core treatment                      ... chemical core (20 el)
Reference Wavefunction                     ... RHF
  Internal Orbitals:    10 ...   33 ( 24 MO's/ 48 electrons)
  Virtual  Orbitals:    34 ...  357 (324 MO's              )
Number of AO's                             ...    358
Number of electrons                        ...     68
Number of correlated electrons             ...     48

Algorithmic settings
--------------------
Integral transformation                    ... All integrals via the RI transformation
K(C) Formation                             ... RI-DLPNO
   PNO-Integral Storage                    ... ON DISK
   PNO occupation number cut-off           ... 3.330e-07
   Singles PNO occupation number cut-off   ... 9.990e-09
   PNO Mulliken prescreening cut-off       ... 1.000e-03
   Domain cut-off (Mulliken population)    ... 1.000e-03
   PNO Normalization                       ...    1
Maximum number of iterations               ...       180
Convergence tolerance (max. residuum)      ... 1.000e-05
Level shift for amplitude update           ... 2.000e-01
Maximum number of DIIS vectors             ...         7
DIIS turned on at iteration                ...         0
Damping before turning on DIIS             ...     0.500
Damping after turning on DIIS              ...     0.000
Pair specific amplitude update             ... OFF
Natural orbital iterations                 ... OFF
Perturbative natural orbital generation    ... OFF
Printlevel                                 ... 2

Singles Fock matrix elements calculated using PNOs.

[...]
   0  35   63999.1    156.3   0.000000000   0.00000 ( -0.00000, -0.00000) ( -0.00000, -0.00000) ( -0.00000, -0.00000)
   0  36   64682.9    154.6   0.000015208   0.00008 (  0.00333,  0.00554) (  0.00308,  0.00511) ( -0.00001, -0.00001)

---------------------------------------------------------------------------------------------------------------------
                    SOC CORRECTED ABSORPTION SPECTRUM VIA TRANSITION VELOCITY DIPOLE MOMENTS*  
---------------------------------------------------------------------------------------------------------------------
   State   Energy  Wavelength    fosc        P2              PX                    PY                    PZ  
           (cm-1)     (nm)                 (au**2)          (au)                  (au)                  (au) 
---------------------------------------------------------------------------------------------------------------------
   0   1   22984.2    435.1   0.000000000   0.00000 ( -0.00000, -0.00000) ( -0.00000, -0.00000) ( -0.00000, -0.00000)
   0   2   22984.2    435.1   0.000000000   0.00000 (  0.00000,  0.00000) (  0.00000,  0.00000) (  0.00000,  0.00000)
   0   3   22984.2    435.1   0.000000000   0.00000 ( -0.00000,  0.00000) ( -0.00000,  0.00000) ( -0.00000,  0.00000)
   0   4   33130.4    301.8   0.000000000   0.00000 ( -0.00000, -0.00000) ( -0.00000, -0.00000) (  0.00000,  0.00000)
   0   5   33130.4    301.8   0.000000000   0.00000 (  0.00000,  0.00000) ( -0.00000, -0.00000) ( -0.00000, -0.00000)
   0   6   33130.4    301.8   0.000000000   0.00000 (  0.00000,  0.00000) ( -0.00000,  0.00000) ( -0.00000, -0.00000)
   0   7   33203.0    301.2   0.000138723   0.00003 (  0.00474, -0.00022) (  0.00298, -0.00014) ( -0.00000,  0.00000)
   0   8   34629.1    288.8   0.000000000   0.00000 (  0.00000,  0.00000) ( -0.00000, -0.00000) (  0.00000,  0.00000)
   0   9   34629.1    288.8   0.000000000   0.00000 ( -0.00000, -0.00000) ( -0.00000, -0.00000) (  0.00000,  0.00000)
   0  10   34629.1    288.8   0.000000000   0.00000 (  0.00000, -0.00000) (  0.00000, -0.00000) ( -0.00000,  0.00000)
   0  11   36096.9    277.0   0.000000000   0.00000 ( -0.00000,  0.00000) ( -0.00000,  0.00000) ( -0.00000,  0.00000)
   0  12   36096.9    277.0   0.000000000   0.00000 ( -0.00000, -0.00000) ( -0.00000, -0.00000) (  0.00000,  0.00000)
   0  13   36096.9    277.0   0.000000000   0.00000 (  0.00000, -0.00000) (  0.00000, -0.00000) (  0.00000, -0.00000)
   0  14   39284.5    254.6   0.000000000   0.00000 ( -0.00000, -0.00000) (  0.00000,  0.00000) (  0.00000,  0.00000)
   0  15   39284.5    254.6   0.000000000   0.00000 ( -0.00000, -0.00000) (  0.00000,  0.00000) ( -0.00000,  0.00000)
   0  16   39284.5    254.6   0.000000000   0.00000 ( -0.00000,  0.00000) ( -0.00000,  0.00000) (  0.00000, -0.00000)
   0  17   40038.8    249.8   0.000472720   0.00013 (  0.00175, -0.00536) ( -0.00306,  0.00939) ( -0.00000,  0.00000)
   0  18   48297.4    207.1   0.000001763   0.00000 ( -0.00000,  0.00066) ( -0.00000,  0.00039) (  0.00000, -0.00000)
   0  19   50210.5    199.2   0.522497423   0.17930 (  0.19110,  0.31145) (  0.11191,  0.18238) ( -0.00001, -0.00002)
   0  20   51420.1    194.5   0.000000169   0.00000 ( -0.00006,  0.00000) (  0.00024, -0.00000) ( -0.00000,  0.00000)
   0  21   52613.8    190.1   0.026910244   0.00968 ( -0.04288, -0.02622) (  0.07215,  0.04411) (  0.00002,  0.00001)
   0  22   53424.1    187.2   0.000000000   0.00000 ( -0.00000, -0.00000) (  0.00000,  0.00000) (  0.00000,  0.00000)
   0  23   53424.1    187.2   0.000000000   0.00000 (  0.00000,  0.00000) ( -0.00000, -0.00000) (  0.00000,  0.00000)
   0  24   53424.1    187.2   0.000000000   0.00000 ( -0.00000, -0.00000) (  0.00000,  0.00000) ( -0.00000, -0.00000)
   0  25   53455.8    187.1   0.000000000   0.00000 (  0.00000,  0.00000) ( -0.00000, -0.00000) (  0.00000,  0.00000)
   0  26   53455.8    187.1   0.000000000   0.00000 ( -0.00000, -0.00000) ( -0.00000, -0.00000) (  0.00000,  0.00000)
   0  27   53455.8    187.1   0.000000000   0.00000 ( -0.00000,  0.00000) ( -0.00000,  0.00000) (  0.00000, -0.00000)
   0  28   54503.6    183.5   0.000000006   0.00000 (  0.00002, -0.00000) ( -0.00004,  0.00000) (  0.00000, -0.00000)
   0  29   61115.3    163.6   0.000000000   0.00000 (  0.00000,  0.00000) (  0.00000,  0.00000) ( -0.00000, -0.00000)
   0  30   61115.3    163.6   0.000000000   0.00000 (  0.00000, -0.00000) ( -0.00000,  0.00000) ( -0.00000,  0.00000)
   0  31   61115.3    163.6   0.000000002   0.00000 ( -0.00003, -0.00000) ( -0.00002, -0.00000) (  0.00000,  0.00000)
   0  32   61682.5    162.1   0.000000213   0.00000 ( -0.00004,  0.00007) (  0.00014, -0.00024) (  0.00003, -0.00005)
   0  33   63999.1    156.3   0.000000000   0.00000 ( -0.00000, -0.00000) (  0.00000,  0.00000) (  0.00000,  0.00000)
   0  34   63999.1    156.3   0.000000000   0.00000 (  0.00000,  0.00000) ( -0.00000, -0.00000) (  0.00000,  0.00000)
   0  35   63999.1    156.3   0.000000000   0.00000 ( -0.00000,  0.00000) ( -0.00000,  0.00000) ( -0.00000,  0.00000)
   0  36   64682.9    154.6   0.000002265   0.00000 (  0.00035, -0.00021) (  0.00078, -0.00047) ( -0.00001,  0.00000)

-------------------------------------------------------------------------------------------------------
                                     SOC CORRECTED CD SPECTRUM*  
-------------------------------------------------------------------------------------------------------
   State   Energy  Wavelength      R               MX                    MY                    MZ  
           (cm-1)     (nm)     (1e40*sgs)         (au)                  (au)                  (au) 
-------------------------------------------------------------------------------------------------------
   0   1   22984.2    435.1     -0.00000 ( -0.00000, -0.00000) ( -0.00000, -0.00000) ( -0.00000, -0.00000)
   0   2   22984.2    435.1      0.00000 (  0.00000,  0.00000) (  0.00000,  0.00000) ( -0.00000, -0.00000)
   0   3   22984.2    435.1      0.00000 ( -0.00000,  0.00000) ( -0.00000,  0.00000) ( -0.00000,  0.00000)
   0   4   33130.4    301.8     -0.00000 ( -0.00000, -0.00000) ( -0.00000, -0.00000) ( -0.00000, -0.00000)
   0   5   33130.4    301.8      0.00000 ( -0.00000, -0.00000) ( -0.00000, -0.00000) ( -0.00000, -0.00000)
   0   6   33130.4    301.8     -0.00000 ( -0.00000, -0.00000) ( -0.00000, -0.00000) (  0.00000,  0.00000)
   0   7   33203.0    301.2      0.00000 (  0.00000, -0.00000) ( -0.00000,  0.00000) (  0.00000, -0.00000)
   0   8   34629.1    288.8     -0.00000 ( -0.00000, -0.00000) (  0.00000,  0.00000) ( -0.00000, -0.00000)
   0   9   34629.1    288.8      0.00000 ( -0.00000, -0.00000) (  0.00000,  0.00000) (  0.00000,  0.00000)
   0  10   34629.1    288.8      0.00000 (  0.00000, -0.00001) (  0.00000, -0.00000) ( -0.00000,  0.00000)
   0  11   36096.9    277.0      0.00000 ( -0.00000,  0.00000) ( -0.00000,  0.00000) ( -0.00000,  0.00000)
   0  12   36096.9    277.0      0.00000 ( -0.00000, -0.00000) (  0.00000,  0.00000) (  0.00000,  0.00000)
   0  13   36096.9    277.0     -0.00000 (  0.00000,  0.00000) (  0.00000,  0.00000) (  0.00000,  0.00000)
   0  14   39284.5    254.6      0.00000 (  0.00000,  0.00000) (  0.00000,  0.00000) (  0.00000,  0.00000)
   0  15   39284.5    254.6      0.00000 ( -0.00000, -0.00000) ( -0.00000, -0.00000) ( -0.00000, -0.00000)
   0  16   39284.5    254.6      0.00000 ( -0.00000,  0.00000) ( -0.00000,  0.00000) ( -0.00000,  0.00000)
   0  17   40038.8    249.8      0.00253 ( -0.00000,  0.00001) (  0.00000, -0.00000) ( -0.00001,  0.00003)
   0  18   48297.4    207.1      0.00000 ( -0.00000,  0.00000) ( -0.00000,  0.00000) (  0.00000, -0.00033)
   0  19   50210.5    199.2      0.02301 (  0.00000,  0.00001) (  0.00000,  0.00001) ( -0.00002, -0.00003)
   0  20   51420.1    194.5     -0.00015 (  0.00006, -0.00000) ( -0.00010,  0.00000) (  0.63629, -0.00020)
   0  21   52613.8    190.1      0.00025 ( -0.00000, -0.00000) ( -0.00000, -0.00000) (  0.00002,  0.00001)
   0  22   53424.1    187.2     -0.00000 (  0.00000,  0.00000) (  0.00000,  0.00000) ( -0.00001, -0.00000)
   0  23   53424.1    187.2     -0.00000 ( -0.00000, -0.00000) ( -0.00000, -0.00000) ( -0.00004, -0.00000)
   0  24   53424.1    187.2     -0.00000 (  0.00001,  0.00000) (  0.00001,  0.00000) ( -0.00000, -0.00000)
   0  25   53455.8    187.1      0.00000 ( -0.00000, -0.00001) ( -0.00000, -0.00001) (  0.00000,  0.00000)
   0  26   53455.8    187.1     -0.00000 (  0.00000,  0.00000) (  0.00000,  0.00000) (  0.00000,  0.00000)
   0  27   53455.8    187.1     -0.00000 (  0.00000, -0.00000) ( -0.00000,  0.00000) (  0.00000, -0.00000)
   0  28   54503.6    183.5     -0.00036 ( -0.00004,  0.00000) (  0.00010, -0.00000) ( -0.58815,  0.00071)
   0  29   61115.3    163.6     -0.00000 (  0.00000,  0.00000) (  0.00000,  0.00000) (  0.00000,  0.00000)
   0  30   61115.3    163.6      0.00000 (  0.00000, -0.00000) (  0.00000, -0.00000) ( -0.00000,  0.00000)
   0  31   61115.3    163.6      0.00000 (  0.00000,  0.00000) (  0.00000,  0.00000) (  0.00000,  0.00000)
   0  32   61682.5    162.1     -0.00001 (  0.00002, -0.00004) (  0.00001, -0.00001) (  0.00002, -0.00003)
   0  33   63999.1    156.3     -0.00000 (  0.00000,  0.00000) (  0.00000,  0.00000) ( -0.00000, -0.00000)
   0  34   63999.1    156.3     -0.00000 ( -0.00000, -0.00000) ( -0.00000, -0.00000) ( -0.00010, -0.00000)
   0  35   63999.1    156.3     -0.00000 (  0.00000, -0.00000) (  0.00000, -0.00000) (  0.00000, -0.00000)
   0  36   64682.9    154.6      1.10871 (  0.20208, -0.12152) (  0.11880, -0.07144) ( -0.00053,  0.00032)

*The complex numbers are printed as (real, imaginary)

The electronic components of the SOC ground state dipole moment in a.u. are:
           X                     Y                     Z
( -0.00000, -0.00000) ( -0.00000, -0.00000) ( -0.00000, -0.00000)


--------------------------------------------------------------------------------
                                    TIMINGS
--------------------------------------------------------------------------------


Total execution time                   ...     5586.636 sec

Localization of occupied MO's          ...        0.787 sec (  0.0%)
Fock Matrix Formation                  ...       28.374 sec (  0.5%)
Global overlap, Fock, MKN matrices     ...        0.352 sec (  0.0%)
Differential overlap integrals         ...        2.392 sec (  0.0%)
Organizing maps                        ...        0.016 sec (  0.0%)
RI 3-index integral generations        ...       19.256 sec (  0.3%)
RI-PNO integral transformation         ...      907.844 sec ( 16.3%)
Initial Guess                          ...       45.194 sec (  0.8%)
DIIS Solver                            ...        0.190 sec (  0.0%)
State Vector Update                    ...        0.012 sec (  0.0%)
Sigma-vector construction              ...      984.567 sec ( 17.6%)
  <0|H|D>                              ...        0.006 sec (  0.0% of sigma)
  <D|H|D>(0-ext)                       ...       29.945 sec (  3.0% of sigma)
  <D|H|D>(2-ext Fock)                  ...        0.130 sec (  0.0% of sigma)
  <D|H|D>(2-ext)                       ...      112.752 sec ( 11.5% of sigma)
  <D|H|D>(4-ext)                       ...      120.726 sec ( 12.3% of sigma)
  <D|H|D>(4-ext-corr)                  ...      580.124 sec ( 58.9% of sigma)
  CCSD doubles correction              ...        1.444 sec (  0.1% of sigma)
  <S|H|S>                              ...        4.514 sec (  0.5% of sigma)
  <S|H|D>(1-ext)                       ...        3.042 sec (  0.3% of sigma)
  <D|H|S>(1-ext)                       ...        0.093 sec (  0.0% of sigma)
  <S|H|D>(3-ext)                       ...        2.657 sec (  0.3% of sigma)
  Fock-dressing                        ...       97.533 sec (  9.9% of sigma)
  Singles amplitudes                   ...        0.416 sec (  0.0% of sigma)
  (ik|jl)-dressing                     ...       18.829 sec (  1.9% of sigma)
  (ij|ab),(ia|jb)-dressing             ...       12.213 sec (  1.2% of sigma)
  Pair energies                        ...        0.036 sec (  0.0% of sigma)
Total Time for computing EOM-CCSD      ...     3496.582 sec ( 62.6% of ALL)
  Dressing integrals                   ...     1411.245 sec ( 40.4% of (EOM))
  Initial EOM-Guess                    ...        0.003 sec (  0.0% of (EOM))
  EOM Singles                          ...       80.409 sec (  2.3% of (EOM))
  EOM Doubles                          ...     1977.854 sec ( 56.6% of (EOM))
  Build Hamiltonian                    ...        1.779 sec (  0.1% of (EOM))
  Diagonalize Hamiltonian              ...        0.218 sec (  0.0% of (EOM))
  Ritz vectors                         ...        2.649 sec (  0.1% of (EOM))
  Residual vectors                     ...        2.804 sec (  0.1% of (EOM))
  Orthogonalization                    ...        0.006 sec (  0.0% of (EOM))
One-particle density matrix            ...        1.214 sec (  0.0%)


Maximum memory used throughout the entire MDCI-calculation: 86931.1 MB

-------------------------   --------------------
FINAL SINGLE POINT ENERGY      -384.955355987919
-------------------------   --------------------


                            ***************************************
                            *     ORCA property calculations      *
                            ***************************************

                                    ---------------------
                                    Active property flags
                                    ---------------------
   (+) Dipole Moment


------------------------------------------------------------------------------
                       ORCA ELECTRIC PROPERTIES CALCULATION
------------------------------------------------------------------------------

Dipole Moment Calculation                       ... on
Quadrupole Moment Calculation                   ... off
Polarizability Calculation                      ... off
GBWName                                         ... /scratch/dca0099.334548/Phos_TZVP_naphtalene_job3.gbw
Electron density                                ... /scratch/dca0099.334548/Phos_TZVP_naphtalene_job3.scfp
The origin for moment calculation is the CENTER OF MASS  = ( 0.000000, -0.000000 -0.000000)

-------------
DIPOLE MOMENT
-------------
                                X             Y             Z
Electronic contribution:      0.00006       0.00001      -0.00001
Nuclear contribution   :     -0.00005       0.00001       0.00001
                        -----------------------------------------
Total Dipole Moment    :      0.00000       0.00002      -0.00000
                        -----------------------------------------
Magnitude (a.u.)       :      0.00002
Magnitude (Debye)      :      0.00005



--------------------
Rotational spectrum 
--------------------
 
Rotational constants in cm-1:     0.104651     0.041365     0.029647 
Rotational constants in MHz :  3137.370576  1240.091757   888.786035 

 Dipole components along the rotational axes: 
x,y,z [a.u.] :     0.000012     0.000013    -0.000000 
x,y,z [Debye]:     0.000031     0.000033    -0.000001 

 

                           *** MDCI DENSITY ***

------------------------------------------------------------------------------
                       ORCA ELECTRIC PROPERTIES CALCULATION
------------------------------------------------------------------------------

Dipole Moment Calculation                       ... on
Quadrupole Moment Calculation                   ... off
Polarizability Calculation                      ... off
GBWName                                         ... /scratch/dca0099.334548/Phos_TZVP_naphtalene_job3.gbw
Electron density                                ... /scratch/dca0099.334548/Phos_TZVP_naphtalene_job3.mdcip
The origin for moment calculation is the CENTER OF MASS  = ( 0.000000, -0.000000 -0.000000)

-------------
DIPOLE MOMENT
-------------
                                X             Y             Z
Electronic contribution:      0.00006      -0.00000      -0.00001
Nuclear contribution   :     -0.00005       0.00001       0.00001
                        -----------------------------------------
Total Dipole Moment    :      0.00000       0.00001       0.00000
                        -----------------------------------------
Magnitude (a.u.)       :      0.00001
Magnitude (Debye)      :      0.00003



--------------------
Rotational spectrum 
--------------------
 
Rotational constants in cm-1:     0.104651     0.041365     0.029647 
Rotational constants in MHz :  3137.370576  1240.091757   888.786035 

 Dipole components along the rotational axes: 
x,y,z [a.u.] :     0.000010     0.000007     0.000001 
x,y,z [Debye]:     0.000025     0.000018     0.000002 

 

------------------------------------------------------------------------------
                           ORCA EXCITED STATE DYNAMICS
------------------------------------------------------------------------------

Requested calculation:				...phosphorescence
Coordinate system:				...Deloc. Internal (BAKER)
Lineshape function:				...Lorenztian
Excited state PES:				...adiabatic hessian
Apply Duschinky rotation:			...no
Use operator derivatives:			...yes
Convert derivatives between states:		...no
Use same frequencies:				...no
Multiroot calculation:				...no
Single mode calculation:			...no
Selected mode calculation:			...no

Ground state hessian:				Phos_TZVP_naphtalene.GS.hess
Reading ground state hessian:			...done
Triplet state hessian:				Phos_TZVP_naphtalene.TS.hess
Reading triplet state hessian:			...done

As an TS Hessian was given, HessFlag is now AH!
Adjusting all geometries to center of mass:	...done
Rotating the triplet state geometry:		...done
The RMSD is:	0.035154

Writting GS hessian to:				/scratch/dca0099.334548/Phos_TZVP_naphtalene_job3.GS.hess
Calculating Wilson`s B Matrix:			...done
Converting to internal coordinates:		...done
Calculating rotation matrix J:			...done
Calculating displacement vector K:		...done
The sum of K*K is:				5.229635

Checking for transition data:			...done
Final check on derivatives:			...done
Writting GS hessian to:				/scratch/dca0099.334548/Phos_TZVP_naphtalene_job3.GS.hess

          ***Everything is set, now computing the correlation function***

Homogeneous linewidth is:			50.00 cm-1
Number of points:				131072
Maximum time:					1592.65 fs
Spectral resolution:				3.33 cm-1
Temperature used:				298.15 K
Z value:					9.127953e-65
Cutoff for the correlation function:		1.00e-06
Adiabatic energy difference:			22650.19 cm-1
0-0 energy difference:				21491.08 cm-1
Reference transition dipole (x,y,z):		(-7.82469e-09 -2.03862e-10),
                                    		(-9.60559e-08 -1.00569e-09),
                                    		(9.81856e-09 1.86523e-10) 
Calculating correlation function:		...done
Last element of the correlation function:	-0.000000,0.000000
Computing the Fourier Transform:		...done

The calculated phosphorescence rate constant is	5.717806e+07 s-1*
with 0.00% from FC and 100.00% from HT

*The rate is multiplied by the square of the refractive index

The phosphorescence spectrum was saved in		/scratch/dca0099.334548/Phos_TZVP_naphtalene_job3.spectrum

Total run time: 0 hours 0 minutes 12 seconds

                      ****ORCA ESD FINISHED WITHOUT ERROR****

Timings for individual modules:

Sum of individual times         ...     5674.313 sec (=  94.572 min)
GTO integral calculation        ...        0.515 sec (=   0.009 min)   0.0 %
SCF iterations                  ...       73.858 sec (=   1.231 min)   1.3 %
MDCI module                     ...     5587.092 sec (=  93.118 min)  98.5 %
ESD module                      ...       12.848 sec (=   0.214 min)   0.2 %



                             ****ORCA TERMINATED NORMALLY****
TOTAL RUN TIME: 0 days 4 hours 24 minutes 56 seconds 6 msec
