
                                 *****************
                                 * O   R   C   A *
                                 *****************

                                            #,                                       
                                            ###                                      
                                            ####                                     
                                            #####                                    
                                            ######                                   
                                           ########,                                 
                                     ,,################,,,,,                         
                               ,,#################################,,                 
                          ,,##########################################,,             
                       ,#########################################, ''#####,          
                    ,#############################################,,   '####,        
                  ,##################################################,,,,####,       
                ,###########''''           ''''###############################       
              ,#####''   ,,,,##########,,,,          '''####'''          '####       
            ,##' ,,,,###########################,,,                        '##       
           ' ,,###''''                  '''############,,,                           
         ,,##''                                '''############,,,,        ,,,,,,###''
      ,#''                                            '''#######################'''  
     '                                                          ''''####''''         
             ,#######,   #######,   ,#######,      ##                                
            ,#'     '#,  ##    ##  ,#'     '#,    #''#        ######   ,####,        
            ##       ##  ##   ,#'  ##            #'  '#       #        #'  '#        
            ##       ##  #######   ##           ,######,      #####,   #    #        
            '#,     ,#'  ##    ##  '#,     ,#' ,#      #,         ##   #,  ,#        
             '#######'   ##     ##  '#######'  #'      '#     #####' # '####'        



                  #######################################################
                  #                        -***-                        #
                  #          Department of theory and spectroscopy      #
                  #    Directorship and core code : Frank Neese         #
                  #        Max Planck Institute fuer Kohlenforschung    #
                  #                Kaiser Wilhelm Platz 1               #
                  #                 D-45470 Muelheim/Ruhr               #
                  #                      Germany                        #
                  #                                                     #
                  #                  All rights reserved                #
                  #                        -***-                        #
                  #######################################################


                         Program Version 5.0.3 -  RELEASE  -


 With contributions from (in alphabetic order):
   Daniel Aravena         : Magnetic Suceptibility
   Michael Atanasov       : Ab Initio Ligand Field Theory (pilot matlab implementation)
   Alexander A. Auer      : GIAO ZORA, VPT2 properties, NMR spectrum
   Ute Becker             : Parallelization
   Giovanni Bistoni       : ED, misc. LED, open-shell LED, HFLD
   Martin Brehm           : Molecular dynamics
   Dmytro Bykov           : SCF Hessian
   Vijay G. Chilkuri      : MRCI spin determinant printing, contributions to CSF-ICE
   Dipayan Datta          : RHF DLPNO-CCSD density
   Achintya Kumar Dutta   : EOM-CC, STEOM-CC
   Dmitry Ganyushin       : Spin-Orbit,Spin-Spin,Magnetic field MRCI
   Miquel Garcia          : C-PCM and meta-GGA Hessian, CC/C-PCM, Gaussian charge scheme
   Yang Guo               : DLPNO-NEVPT2, F12-NEVPT2, CIM, IAO-localization
   Andreas Hansen         : Spin unrestricted coupled pair/coupled cluster methods
   Benjamin Helmich-Paris : MC-RPA, TRAH-SCF, COSX integrals
   Lee Huntington         : MR-EOM, pCC
   Robert Izsak           : Overlap fitted RIJCOSX, COSX-SCS-MP3, EOM
   Marcus Kettner         : VPT2
   Christian Kollmar      : KDIIS, OOCD, Brueckner-CCSD(T), CCSD density, CASPT2, CASPT2-K
   Simone Kossmann        : Meta GGA functionals, TD-DFT gradient, OOMP2, MP2 Hessian
   Martin Krupicka        : Initial AUTO-CI
   Lucas Lang             : DCDCAS
   Marvin Lechner         : AUTO-CI (C++ implementation), FIC-MRCC
   Dagmar Lenk            : GEPOL surface, SMD
   Dimitrios Liakos       : Extrapolation schemes; Compound Job, initial MDCI parallelization
   Dimitrios Manganas     : Further ROCIS development; embedding schemes
   Dimitrios Pantazis     : SARC Basis sets
   Anastasios Papadopoulos: AUTO-CI, single reference methods and gradients
   Taras Petrenko         : DFT Hessian,TD-DFT gradient, ASA, ECA, R-Raman, ABS, FL, XAS/XES, NRVS
   Peter Pinski           : DLPNO-MP2, DLPNO-MP2 Gradient
   Christoph Reimann      : Effective Core Potentials
   Marius Retegan         : Local ZFS, SOC
   Christoph Riplinger    : Optimizer, TS searches, QM/MM, DLPNO-CCSD(T), (RO)-DLPNO pert. Triples
   Tobias Risthaus        : Range-separated hybrids, TD-DFT gradient, RPA, STAB
   Michael Roemelt        : Original ROCIS implementation
   Masaaki Saitow         : Open-shell DLPNO-CCSD energy and density
   Barbara Sandhoefer     : DKH picture change effects
   Avijit Sen             : IP-ROCIS
   Kantharuban Sivalingam : CASSCF convergence, NEVPT2, FIC-MRCI
   Bernardo de Souza      : ESD, SOC TD-DFT
   Georgi Stoychev        : AutoAux, RI-MP2 NMR, DLPNO-MP2 response
   Willem Van den Heuvel  : Paramagnetic NMR
   Boris Wezisla          : Elementary symmetry handling
   Frank Wennmohs         : Technical directorship


 We gratefully acknowledge several colleagues who have allowed us to
 interface, adapt or use parts of their codes:
   Stefan Grimme, W. Hujo, H. Kruse, P. Pracht,  : VdW corrections, initial TS optimization,
                  C. Bannwarth, S. Ehlert          DFT functionals, gCP, sTDA/sTD-DF
   Ed Valeev, F. Pavosevic, A. Kumar             : LibInt (2-el integral package), F12 methods
   Garnet Chan, S. Sharma, J. Yang, R. Olivares  : DMRG
   Ulf Ekstrom                                   : XCFun DFT Library
   Mihaly Kallay                                 : mrcc  (arbitrary order and MRCC methods)
   Jiri Pittner, Ondrej Demel                    : Mk-CCSD
   Frank Weinhold                                : gennbo (NPA and NBO analysis)
   Christopher J. Cramer and Donald G. Truhlar   : smd solvation model
   Lars Goerigk                                  : TD-DFT with DH, B97 family of functionals
   V. Asgeirsson, H. Jonsson                     : NEB implementation
   FAccTs GmbH                                   : IRC, NEB, NEB-TS, DLPNO-Multilevel, CI-OPT
                                                   MM, QMMM, 2- and 3-layer-ONIOM, Crystal-QMMM,
                                                   LR-CPCM, SF, NACMEs, symmetry and pop. for TD-DFT,
                                                   nearIR, NL-DFT gradient (VV10), updates on ESD,
                                                   ML-optimized integration grids
   S Lehtola, MJT Oliveira, MAL Marques          : LibXC Library
   Liviu Ungur et al                             : ANISO software


 Your calculation uses the libint2 library for the computation of 2-el integrals
 For citations please refer to: http://libint.valeyev.net

 Your ORCA version has been built with support for libXC version: 5.1.0
 For citations please refer to: https://tddft.org/programs/libxc/

 This ORCA versions uses:
   CBLAS   interface :  Fast vector & matrix operations
   LAPACKE interface :  Fast linear algebra routines
   SCALAPACK package :  Parallel linear algebra routines
   Shared memory     :  Shared parallel matrices
   BLAS/LAPACK       :  OpenBLAS 0.3.15  USE64BITINT DYNAMIC_ARCH NO_AFFINITY Haswell SINGLE_THREADED
        Core in use  :  Haswell
   Copyright (c) 2011-2014, The OpenBLAS Project


================================================================================

----- Orbital basis set information -----
Your calculation utilizes the basis: def2-TZVP
   F. Weigend and R. Ahlrichs, Phys. Chem. Chem. Phys. 7, 3297 (2005).

----- AuxJ basis set information -----
Your calculation utilizes the auxiliary basis: def2/J
   F. Weigend, Phys. Chem. Chem. Phys. 8, 1057 (2006).

----- AuxC basis set information -----
Your calculation utilizes the auxiliary basis: def2-TZVP/C
  H-La, Hf-Rn : A. Hellweg, C. Hattig, S. Hofener and W. Klopper, Theor. Chem. Acc. 117, 587 (2007).
        Ce-Lu : J. Chmela and M. E. Harding, Mol. Phys. (2018).

================================================================================
                                        WARNINGS
                       Please study these warnings very carefully!
================================================================================

INFO   : Checking CIS options ...

INFO   : Since TDDFT/CIS Mode == RPA_AOINTS, the TAMMDANCOFF/TDA keyword is ignored. 


WARNING: (CIS/TDDFT): When using ORCA_ESD, CPCMEQ is set by default to TRUE
  ===> : turning on equilibrium dielectric conditions.

WARNING: CIS/ROCIS methods need fully converged wavefunctions
  ===> : Setting SCFConvForced true
         You can overwrite this default with %scf ConvForced false 


INFO   : the flag for use of the SHARK integral package has been found!

================================================================================

----- Orbital basis set information -----
Your calculation utilizes the basis: def2-TZVP
   F. Weigend and R. Ahlrichs, Phys. Chem. Chem. Phys. 7, 3297 (2005).

----- AuxJ basis set information -----
Your calculation utilizes the auxiliary basis: def2/J
   F. Weigend, Phys. Chem. Chem. Phys. 8, 1057 (2006).

----- AuxC basis set information -----
Your calculation utilizes the auxiliary basis: def2-TZVP/C
  H-La, Hf-Rn : A. Hellweg, C. Hattig, S. Hofener and W. Klopper, Theor. Chem. Acc. 117, 587 (2007).
        Ce-Lu : J. Chmela and M. E. Harding, Mol. Phys. (2018).

================================================================================
                                        WARNINGS
                       Please study these warnings very carefully!
================================================================================

INFO   : Checking CIS options ...

INFO   : Since TDDFT/CIS Mode == RPA_AOINTS, the TAMMDANCOFF/TDA keyword is ignored. 


WARNING: (CIS/TDDFT): When using ORCA_ESD, CPCMEQ is set by default to TRUE
  ===> : turning on equilibrium dielectric conditions.

INFO   : the flag for use of the SHARK integral package has been found!

================================================================================

----- Orbital basis set information -----
Your calculation utilizes the basis: def2-TZVP
   F. Weigend and R. Ahlrichs, Phys. Chem. Chem. Phys. 7, 3297 (2005).

----- AuxJ basis set information -----
Your calculation utilizes the auxiliary basis: def2/J
   F. Weigend, Phys. Chem. Chem. Phys. 8, 1057 (2006).

----- AuxC basis set information -----
Your calculation utilizes the auxiliary basis: def2-TZVP/C
  H-La, Hf-Rn : A. Hellweg, C. Hattig, S. Hofener and W. Klopper, Theor. Chem. Acc. 117, 587 (2007).
        Ce-Lu : J. Chmela and M. E. Harding, Mol. Phys. (2018).

================================================================================
                                        WARNINGS
                       Please study these warnings very carefully!
================================================================================

INFO   : Checking CIS options ...

INFO   : Since TDDFT/CIS Mode == RPA_AOINTS, the TAMMDANCOFF/TDA keyword is ignored. 


WARNING: (CIS/TDDFT): When using ORCA_ESD, CPCMEQ is set by default to TRUE
  ===> : turning on equilibrium dielectric conditions.

INFO   : the flag for use of the SHARK integral package has been found!

================================================================================
                                       INPUT FILE
================================================================================
NAME = /scratch/dca0099.334989/Phos_dft_TZVP_naphtalene.inp
|  1> !B3LYP DEF2-TZVP DEF2-TZVP/C def2/J RIJCOSX TIGHTSCF CPCM(toluene) RI-SOMF(1X) ESD(PHOSP)
|  2> %maxcore  120000
|  3> 
|  4> %TDDFT 
|  5> 	NROOTS 6
|  6> 	TDA FALSE
|  7> 	IROOT 1
|  8> END
|  9> 
| 10> %ESD 
| 11> 	GSHESSIAN "Phos_dft_TZVP_naphtalene.GS.hess"
| 12> 	TSHESSIAN "Phos_dft_TZVP_naphtalene.TS.hess"
| 13> 	DOHT TRUE
| 14> 	DELE 22650.19
| 15> END
| 16> 
| 17> * xyz 0 1
| 18>   C   -8.96121784812031      0.24268337776474      0.00033489819780
| 19>   C   -7.59059951968750      0.24371545417717      0.00015198745293
| 20>   C   -6.86693343298993      1.46030211281662      0.00023475747764
| 21>   C   -7.58799559947894      2.69205204792658      0.00050997612007
| 22>   C   -9.00310055342497      2.65617792309838      0.00069280404132
| 23>   C   -9.67467975506609      1.46137108557408      0.00060814266859
| 24>   H   -4.90710891896316      0.55933209328366     -0.00016767341217
| 25>   H   -9.50425962457938     -0.69409088109167      0.00026687164944
| 26>   H   -7.04027568972576     -0.68980140749936     -0.00005544925225
| 27>   C   -5.45183741157070      1.49616229462644      0.00005614405431
| 28>   C   -6.86437066397562      3.90865807672096      0.00059715121121
| 29>   H   -9.54784882567221      3.59299899012176      0.00091076313657
| 30>   H   -10.75737868171900      1.44626581403603      0.00074783188745
| 31>   C   -5.49375285629476      3.90967522182525      0.00042517705822
| 32>   C   -4.78028626336214      2.69100004727155      0.00015218718405
| 33>   H   -7.41470937199301      4.84216327382740      0.00079951152285
| 34>   H   -4.95071130646203      4.84645090655905      0.00050815101568
| 35>   H   -3.69758703691443      2.70613312896136      0.00001676798628
| 36> *
| 37> 
| 38> $NEW_JOB
| 39> 
| 40> !B3LYP DEF2-TZVP DEF2-TZVP/C def2/J RIJCOSX TIGHTSCF CPCM(toluene) RI-SOMF(1X) ESD(PHOSP)
| 41> %maxcore  120000
| 42> 
| 43> %TDDFT 
| 44> 	NROOTS 6
| 45> 	TDA FALSE
| 46> 	IROOT 2
| 47> END
| 48> 
| 49> %ESD 
| 50> 	GSHESSIAN "Phos_dft_TZVP_naphtalene.GS.hess"
| 51> 	TSHESSIAN "Phos_dft_TZVP_naphtalene.TS.hess"
| 52> 	DOHT TRUE
| 53> 	DELE 22650.19
| 54> END
| 55> 
| 56> * xyz 0 1
| 57>   C   -8.96121784812031      0.24268337776474      0.00033489819780
| 58>   C   -7.59059951968750      0.24371545417717      0.00015198745293
| 59>   C   -6.86693343298993      1.46030211281662      0.00023475747764
| 60>   C   -7.58799559947894      2.69205204792658      0.00050997612007
| 61>   C   -9.00310055342497      2.65617792309838      0.00069280404132
| 62>   C   -9.67467975506609      1.46137108557408      0.00060814266859
| 63>   H   -4.90710891896316      0.55933209328366     -0.00016767341217
| 64>   H   -9.50425962457938     -0.69409088109167      0.00026687164944
| 65>   H   -7.04027568972576     -0.68980140749936     -0.00005544925225
| 66>   C   -5.45183741157070      1.49616229462644      0.00005614405431
| 67>   C   -6.86437066397562      3.90865807672096      0.00059715121121
| 68>   H   -9.54784882567221      3.59299899012176      0.00091076313657
| 69>   H   -10.75737868171900      1.44626581403603      0.00074783188745
| 70>   C   -5.49375285629476      3.90967522182525      0.00042517705822
| 71>   C   -4.78028626336214      2.69100004727155      0.00015218718405
| 72>   H   -7.41470937199301      4.84216327382740      0.00079951152285
| 73>   H   -4.95071130646203      4.84645090655905      0.00050815101568
| 74>   H   -3.69758703691443      2.70613312896136      0.00001676798628
| 75> *
| 76> 
| 77> $NEW_JOB
| 78> 
| 79> !B3LYP DEF2-TZVP DEF2-TZVP/C def2/J RIJCOSX TIGHTSCF CPCM(toluene) RI-SOMF(1X) ESD(PHOSP)
| 80> %maxcore  120000
| 81> 
| 82> %TDDFT 
| 83> 	NROOTS 6
| 84> 	TDA FALSE
| 85> 	IROOT 3
| 86> END
| 87> 
| 88> %ESD 
| 89> 	GSHESSIAN "Phos_dft_TZVP_naphtalene.GS.hess"
| 90> 	TSHESSIAN "Phos_dft_TZVP_naphtalene.TS.hess"
| 91> 	DOHT TRUE
| 92> 	DELE 22650.19
| 93> END
| 94> 
| 95> * xyz 0 1
| 96>   C   -8.96121784812031      0.24268337776474      0.00033489819780
| 97>   C   -7.59059951968750      0.24371545417717      0.00015198745293
| 98>   C   -6.86693343298993      1.46030211281662      0.00023475747764
| 99>   C   -7.58799559947894      2.69205204792658      0.00050997612007
|100>   C   -9.00310055342497      2.65617792309838      0.00069280404132
|101>   C   -9.67467975506609      1.46137108557408      0.00060814266859
|102>   H   -4.90710891896316      0.55933209328366     -0.00016767341217
|103>   H   -9.50425962457938     -0.69409088109167      0.00026687164944
|104>   H   -7.04027568972576     -0.68980140749936     -0.00005544925225
|105>   C   -5.45183741157070      1.49616229462644      0.00005614405431
|106>   C   -6.86437066397562      3.90865807672096      0.00059715121121
|107>   H   -9.54784882567221      3.59299899012176      0.00091076313657
|108>   H   -10.75737868171900      1.44626581403603      0.00074783188745
|109>   C   -5.49375285629476      3.90967522182525      0.00042517705822
|110>   C   -4.78028626336214      2.69100004727155      0.00015218718405
|111>   H   -7.41470937199301      4.84216327382740      0.00079951152285
|112>   H   -4.95071130646203      4.84645090655905      0.00050815101568
|113>   H   -3.69758703691443      2.70613312896136      0.00001676798628
|114> *
|115> 
|116> 
|117> 
|118> 
|119> 
|120>                          ****END OF INPUT****
================================================================================


                 $$$$$$$$$$$$$$$$$$$$$$$$$$$$$$$$$$$$$$$$$$$$$$ 
                 $ THERE ARE  3 JOBS TO BE PROCESSED THIS RUN $
                 $$$$$$$$$$$$$$$$$$$$$$$$$$$$$$$$$$$$$$$$$$$$$$ 




                 $$$$$$$$$$$$$$$$  JOB NUMBER  1 $$$$$$$$$$$$$$


                       ****************************
                       * Single Point Calculation *
                       ****************************

The geometry is being displaced to its center of mass!
---------------------------------
CARTESIAN COORDINATES (ANGSTROEM)
---------------------------------
  C     -1.733740   -1.833496   -0.000042
  C     -0.363122   -1.832464   -0.000224
  C      0.360544   -0.615878   -0.000142
  C     -0.360518    0.615872    0.000134
  C     -1.775623    0.579998    0.000316
  C     -2.447202   -0.614809    0.000232
  H      2.320369   -1.516848   -0.000544
  H     -2.276782   -2.770271   -0.000110
  H      0.187202   -2.765981   -0.000432
  C      1.775640   -0.580018   -0.000320
  C      0.363107    1.832478    0.000221
  H     -2.320371    1.516819    0.000534
  H     -3.529901   -0.629914    0.000371
  C      1.733725    1.833495    0.000049
  C      2.447192    0.614820   -0.000224
  H     -0.187232    2.765983    0.000423
  H      2.276767    2.770271    0.000132
  H      3.529891    0.629953   -0.000360

----------------------------
CARTESIAN COORDINATES (A.U.)
----------------------------
  NO LB      ZA    FRAG     MASS         X           Y           Z
   0 C     6.0000    0    12.011   -3.276294   -3.464806   -0.000079
   1 C     6.0000    0    12.011   -0.686200   -3.462856   -0.000424
   2 C     6.0000    0    12.011    0.681330   -1.163840   -0.000268
   3 C     6.0000    0    12.011   -0.681280    1.163830    0.000252
   4 C     6.0000    0    12.011   -3.355441    1.096037    0.000598
   5 C     6.0000    0    12.011   -4.624541   -1.161820    0.000438
   6 H     1.0000    0     1.008    4.384862   -2.866427   -0.001028
   7 H     1.0000    0     1.008   -4.302494   -5.235053   -0.000207
   8 H     1.0000    0     1.008    0.353761   -5.226947   -0.000816
   9 C     6.0000    0    12.011    3.355474   -1.096074   -0.000605
  10 C     6.0000    0    12.011    0.686173    3.462882    0.000417
  11 H     1.0000    0     1.008   -4.384866    2.866373    0.001010
  12 H     1.0000    0     1.008   -6.670546   -1.190365    0.000702
  13 C     6.0000    0    12.011    3.276265    3.464804    0.000092
  14 C     6.0000    0    12.011    4.624522    1.161842   -0.000424
  15 H     1.0000    0     1.008   -0.353816    5.226951    0.000799
  16 H     1.0000    0     1.008    4.302465    5.235054    0.000249
  17 H     1.0000    0     1.008    6.670527    1.190439   -0.000680

--------------------------------
INTERNAL COORDINATES (ANGSTROEM)
--------------------------------
 C      0   0   0     0.000000000000     0.00000000     0.00000000
 C      1   0   0     1.370618729215     0.00000000     0.00000000
 C      2   1   0     1.415547847961   120.78872804     0.00000000
 C      3   2   1     1.427283653073   118.90985599     0.00000000
 C      4   3   2     1.415559612641   118.89237357     0.00000000
 C      5   4   3     1.370613734879   120.79173451     0.00000000
 H      3   2   1     2.157002379189    96.05640884   180.00020823
 H      1   2   3     1.082792864616   120.14372570   179.99985320
 H      2   1   3     1.083655891826   120.47691903   179.99977039
 C      7   3   2     1.083688150208    35.13457172   180.00086861
 C      4   3   2     1.415543458952   118.91168837   179.99979670
 H      5   4   3     1.083690195232   118.72521347   179.99944983
 H      6   5   4     1.082804301117   120.13885846   180.00012170
 C     11   4   3     1.370618195885   120.78627157     0.00000000
 C     10   7   3     1.370626940137   120.48585441   180.00054876
 H     11   4   3     1.083653398240   118.73519446   179.99959498
 H     14  11   4     1.082793985594   120.14305325   180.00086116
 H     15  10   7     1.082804988652   120.13867409     0.00000000

---------------------------
INTERNAL COORDINATES (A.U.)
---------------------------
 C      0   0   0     0.000000000000     0.00000000     0.00000000
 C      1   0   0     2.590094032239     0.00000000     0.00000000
 C      2   1   0     2.674997762108   120.78872804     0.00000000
 C      3   2   1     2.697175219731   118.90985599     0.00000000
 C      4   3   2     2.675019994131   118.89237357     0.00000000
 C      5   4   3     2.590084594312   120.79173451     0.00000000
 H      3   2   1     4.076143766884    96.05640884   180.00020823
 H      1   2   3     2.046181973888   120.14372570   179.99985320
 H      2   1   3     2.047812858960   120.47691903   179.99977039
 C      7   3   2     2.047873818468    35.13457172   180.00086861
 C      4   3   2     2.674989468082   118.91168837   179.99979670
 H      5   4   3     2.047877683004   118.72521347   179.99944983
 H      6   5   4     2.046203585742   120.13885846   180.00012170
 C     11   4   3     2.590093024392   120.78627157     0.00000000
 C     10   7   3     2.590109548634   120.48585441   180.00054876
 H     11   4   3     2.047808146766   118.73519446   179.99959498
 H     14  11   4     2.046184092229   120.14305325   180.00086116
 H     15  10   7     2.046204884997   120.13867409     0.00000000

---------------------
BASIS SET INFORMATION
---------------------
There are 2 groups of distinct atoms

 Group   1 Type C   : 11s6p2d1f contracted to 5s3p2d1f pattern {62111/411/11/1}
 Group   2 Type H   : 5s1p contracted to 3s1p pattern {311/1}

Atom   0C    basis set group =>   1
Atom   1C    basis set group =>   1
Atom   2C    basis set group =>   1
Atom   3C    basis set group =>   1
Atom   4C    basis set group =>   1
Atom   5C    basis set group =>   1
Atom   6H    basis set group =>   2
Atom   7H    basis set group =>   2
Atom   8H    basis set group =>   2
Atom   9C    basis set group =>   1
Atom  10C    basis set group =>   1
Atom  11H    basis set group =>   2
Atom  12H    basis set group =>   2
Atom  13C    basis set group =>   1
Atom  14C    basis set group =>   1
Atom  15H    basis set group =>   2
Atom  16H    basis set group =>   2
Atom  17H    basis set group =>   2
---------------------------------
AUXILIARY/J BASIS SET INFORMATION
---------------------------------
There are 2 groups of distinct atoms

 Group   1 Type C   : 12s5p4d2f1g contracted to 6s4p3d1f1g pattern {711111/2111/211/2/1}
 Group   2 Type H   : 5s2p1d contracted to 3s1p1d pattern {311/2/1}

Atom   0C    basis set group =>   1
Atom   1C    basis set group =>   1
Atom   2C    basis set group =>   1
Atom   3C    basis set group =>   1
Atom   4C    basis set group =>   1
Atom   5C    basis set group =>   1
Atom   6H    basis set group =>   2
Atom   7H    basis set group =>   2
Atom   8H    basis set group =>   2
Atom   9C    basis set group =>   1
Atom  10C    basis set group =>   1
Atom  11H    basis set group =>   2
Atom  12H    basis set group =>   2
Atom  13C    basis set group =>   1
Atom  14C    basis set group =>   1
Atom  15H    basis set group =>   2
Atom  16H    basis set group =>   2
Atom  17H    basis set group =>   2
---------------------------------
AUXILIARY/C BASIS SET INFORMATION
---------------------------------
There are 2 groups of distinct atoms

 Group   1 Type C   : 8s6p5d3f1g contracted to 8s6p4d3f1g pattern {11111111/111111/2111/111/1}
 Group   2 Type H   : 4s3p2d contracted to 4s2p1d pattern {1111/21/2}

Atom   0C    basis set group =>   1
Atom   1C    basis set group =>   1
Atom   2C    basis set group =>   1
Atom   3C    basis set group =>   1
Atom   4C    basis set group =>   1
Atom   5C    basis set group =>   1
Atom   6H    basis set group =>   2
Atom   7H    basis set group =>   2
Atom   8H    basis set group =>   2
Atom   9C    basis set group =>   1
Atom  10C    basis set group =>   1
Atom  11H    basis set group =>   2
Atom  12H    basis set group =>   2
Atom  13C    basis set group =>   1
Atom  14C    basis set group =>   1
Atom  15H    basis set group =>   2
Atom  16H    basis set group =>   2
Atom  17H    basis set group =>   2
------------------------------------------------------------------------------
                           ORCA GTO INTEGRAL CALCULATION
                           -- RI-GTO INTEGRALS CHOSEN --
------------------------------------------------------------------------------
------------------------------------------------------------------------------
                   ___                                                        
                  /   \      - P O W E R E D   B Y -                         
                 /     \                                                     
                 |  |  |   _    _      __       _____    __    __             
                 |  |  |  | |  | |    /  \     |  _  \  |  |  /  |          
                  \  \/   | |  | |   /    \    | | | |  |  | /  /          
                 / \  \   | |__| |  /  /\  \   | |_| |  |  |/  /          
                |  |  |   |  __  | /  /__\  \  |    /   |      \           
                |  |  |   | |  | | |   __   |  |    \   |  |\   \          
                \     /   | |  | | |  |  |  |  | |\  \  |  | \   \       
                 \___/    |_|  |_| |__|  |__|  |_| \__\ |__|  \__/        
                                                                              
                      - O R C A' S   B I G   F R I E N D -                    
                                      &                                       
                       - I N T E G R A L  F E E D E R -                       
                                                                              
 v1 FN, 2020, v2 2021                                                         
------------------------------------------------------------------------------


Reading SHARK input file /scratch/dca0099.334989/Phos_dft_TZVP_naphtalene.SHARKINP.tmp ... ok
----------------------
SHARK INTEGRAL PACKAGE
----------------------

Number of atoms                             ...     18
Number of basis functions                   ...    358
Number of shells                            ...    142
Maximum angular momentum                    ...      3
Integral batch strategy                     ... SHARK/LIBINT Hybrid
RI-J (if used) integral strategy            ... SPLIT-RIJ (Revised 2003 algorithm where possible)
Printlevel                                  ...      1
Contraction scheme used                     ... SEGMENTED contraction
Coulomb Range Separation                    ... NOT USED
Exchange Range Separation                   ... NOT USED
Finite Nucleus Model                        ... NOT USED
Auxiliary Coulomb fitting basis             ... AVAILABLE
   # of basis functions in Aux-J            ...    578
   # of shells in Aux-J                     ...    190
   Maximum angular momentum in Aux-J        ...      4
Auxiliary J/K fitting basis                 ... NOT available
Auxiliary Correlation fitting basis         ... AVAILABLE
   # of basis functions in Aux-C            ...    880
   # of shells in Aux-C                     ...    276
   Maximum angular momentum in Aux-C        ...      4
Auxiliary 'external' fitting basis          ... NOT available
Integral threshold                          ...     2.500000e-11
Primitive cut-off                           ...     2.500000e-12
Primitive pair pre-selection threshold      ...     2.500000e-12

Calculating pre-screening integrals         ... done (  0.2 sec) Dimension = 142
Organizing shell pair data                  ... done (  0.1 sec)
Shell pair information
Total number of shell pairs                 ...     10153
Shell pairs after pre-screening             ...      9202
Total number of primitive shell pairs       ...     31120
Primitive shell pairs kept                  ...     20969
          la=0 lb=0:   2378 shell pairs
          la=1 lb=0:   2554 shell pairs
          la=1 lb=1:    697 shell pairs
          la=2 lb=0:   1364 shell pairs
          la=2 lb=1:    728 shell pairs
          la=2 lb=2:    202 shell pairs
          la=3 lb=0:    668 shell pairs
          la=3 lb=1:    364 shell pairs
          la=3 lb=2:    192 shell pairs
          la=3 lb=3:     55 shell pairs

Calculating one electron integrals          ... done (  0.1 sec)
Calculating RI/J V-Matrix + Cholesky decomp.... done (  0.0 sec)
Calculating RI/C V-Matrix + Cholesky decomp.... done (  0.1 sec)
Calculating Nuclear repulsion               ... done (  0.0 sec) ENN=    459.060186556575 Eh

SHARK setup successfully completed in   1.0 seconds

Maximum memory used throughout the entire GTOINT-calculation: 140.7 MB
-------------------------------------------------------------------------------
                                 ORCA SCF
-------------------------------------------------------------------------------

------------
SCF SETTINGS
------------
Hamiltonian:
 Density Functional     Method          .... DFT(GTOs)
 Exchange Functional    Exchange        .... B88
   X-Alpha parameter    XAlpha          ....  0.666667
   Becke's b parameter  XBeta           ....  0.004200
 Correlation Functional Correlation     .... LYP
 LDA part of GGA corr.  LDAOpt          .... VWN-5
 Gradients option       PostSCFGGA      .... off
 Hybrid DFT is turned on
   Fraction HF Exchange ScalHFX         ....  0.200000
   Scaling of DF-GGA-X  ScalDFX         ....  0.720000
   Scaling of DF-GGA-C  ScalDFC         ....  0.810000
   Scaling of DF-LDA-C  ScalLDAC        ....  1.000000
   Perturbative correction              ....  0.000000
   Density functional embedding theory  .... OFF
   NL short-range parameter             ....  4.800000
 RI-approximation to the Coulomb term is turned on
   Number of AuxJ basis functions       .... 578
   RIJ-COSX (HFX calculated with COS-X)).... on


General Settings:
 Integral files         IntName         .... /scratch/dca0099.334989/Phos_dft_TZVP_naphtalene
 Hartree-Fock type      HFTyp           .... RHF
 Total Charge           Charge          ....    0
 Multiplicity           Mult            ....    1
 Number of Electrons    NEL             ....   68
 Basis Dimension        Dim             ....  358
 Nuclear Repulsion      ENuc            ....    459.0601865566 Eh

Convergence Acceleration:
 DIIS                   CNVDIIS         .... on
   Start iteration      DIISMaxIt       ....    12
   Startup error        DIISStart       ....  0.200000
   # of expansion vecs  DIISMaxEq       ....     5
   Bias factor          DIISBfac        ....   1.050
   Max. coefficient     DIISMaxC        ....  10.000
 Trust-Rad. Augm. Hess. CNVTRAH         .... auto
   Auto Start mean grad. ratio tolernc. ....  1.125000
   Auto Start start iteration           ....    20
   Auto Start num. interpolation iter.  ....    10
   Max. Number of Micro iterations      ....    16
   Max. Number of Macro iterations      .... Maxiter - #DIIS iter
   Number of Davidson start vectors     ....     2
   Converg. threshold I  (grad. norm)   ....   1.000e-05
   Converg. threshold II (energy diff.) ....   1.000e-08
   Grad. Scal. Fac. for Micro threshold ....   0.100
   Minimum threshold for Micro iter.    ....   0.010
   NR start threshold (gradient norm)   ....   0.001
   Initial trust radius                 ....   0.400
   Minimum AH scaling param. (alpha)    ....   1.000
   Maximum AH scaling param. (alpha)    .... 1000.000
   Orbital update algorithm             .... Taylor
   White noise on init. David. guess    .... on
   Maximum white noise                  ....   0.010
   Quad. conv. algorithm                .... NR
 SOSCF                  CNVSOSCF        .... on
   Start iteration      SOSCFMaxIt      ....   150
   Startup grad/error   SOSCFStart      ....  0.003300
 Level Shifting         CNVShift        .... on
   Level shift para.    LevelShift      ....    0.2500
   Turn off err/grad.   ShiftErr        ....    0.0010
 Zerner damping         CNVZerner       .... off
 Static damping         CNVDamp         .... on
   Fraction old density DampFac         ....    0.7000
   Max. Damping (<1)    DampMax         ....    0.9800
   Min. Damping (>=0)   DampMin         ....    0.0000
   Turn off err/grad.   DampErr         ....    0.1000
 Fernandez-Rico         CNVRico         .... off

SCF Procedure:
 Maximum # iterations   MaxIter         ....   125
 SCF integral mode      SCFMode         .... Direct
   Integral package                     .... SHARK and LIBINT hybrid scheme
 Reset frequency        DirectResetFreq ....    20
 Integral Threshold     Thresh          ....  2.500e-11 Eh
 Primitive CutOff       TCut            ....  2.500e-12 Eh

Convergence Tolerance:
 Convergence Check Mode ConvCheckMode   .... Total+1el-Energy
 Convergence forced     ConvForced      .... 1
 Energy Change          TolE            ....  1.000e-08 Eh
 1-El. energy change                    ....  1.000e-05 Eh
 Orbital Gradient       TolG            ....  1.000e-05
 Orbital Rotation angle TolX            ....  1.000e-05
 DIIS Error             TolErr          ....  5.000e-07


Diagonalization of the overlap matrix:
Smallest eigenvalue                        ... 6.497e-06
Time for diagonalization                   ...    0.047 sec
Threshold for overlap eigenvalues          ... 1.000e-08
Number of eigenvalues below threshold      ... 0
Time for construction of square roots      ...    0.017 sec
Total time needed                          ...    0.065 sec

Time for model grid setup =    0.625 sec

------------------------------
INITIAL GUESS: MODEL POTENTIAL
------------------------------
Loading Hartree-Fock densities                     ... done
Calculating cut-offs                               ... done
Initializing the effective Hamiltonian             ... done
Setting up the integral package (SHARK)            ... done
Starting the Coulomb interaction                   ... done (   0.8 sec)
Reading the grid                                   ... done
Mapping shells                                     ... done
Starting the XC term evaluation                    ... done (   0.8 sec)
  promolecular density results
     # of electrons  =     67.995182938
     EX              =    -53.804371454
     EC              =     -2.265510820
     EX+EC           =    -56.069882274
Transforming the Hamiltonian                       ... done (   0.0 sec)
Diagonalizing the Hamiltonian                      ... done (   0.0 sec)
Back transforming the eigenvectors                 ... done (   0.0 sec)
Now organizing SCF variables                       ... done
                      ------------------
                      INITIAL GUESS DONE (   2.3 sec)
                      ------------------
-------------------
DFT GRID GENERATION
-------------------

General Integration Accuracy     IntAcc      ... 4.388
Radial Grid Type                 RadialGrid  ... OptM3 with GC (2021)
Angular Grid (max. ang.)         AngularGrid ... 4 (Lebedev-302)
Angular grid pruning method      GridPruning ... 4 (adaptive)
Weight generation scheme         WeightScheme... Becke
Basis function cutoff            BFCut       ... 1.0000e-11
Integration weight cutoff        WCut        ... 1.0000e-14
Angular grids for H and He will be reduced by one unit
Partially contracted basis set               ... off
Rotationally invariant grid construction     ... off

Total number of grid points                  ...    85584
Total number of batches                      ...     1350
Average number of points per batch           ...       63
Average number of grid points per atom       ...     4755
Time for grid setup =    1.229 sec

--------------------
COSX GRID GENERATION
--------------------

GRIDX 1
-------
General Integration Accuracy     IntAcc      ... 3.816
Radial Grid Type                 RadialGrid  ... OptM3 with GC (2021)
Angular Grid (max. ang.)         AngularGrid ... 1 (Lebedev-50)
Angular grid pruning method      GridPruning ... 4 (adaptive)
Weight generation scheme         WeightScheme... Becke
Basis function cutoff            BFCut       ... 1.0000e-11
Integration weight cutoff        WCut        ... 1.0000e-14
Angular grids for H and He will be reduced by one unit
Partially contracted basis set               ... on
Rotationally invariant grid construction     ... off

Total number of grid points                  ...    10956
Total number of batches                      ...      176
Average number of points per batch           ...       62
Average number of grid points per atom       ...      609
UseSFitting                                  ... on

GRIDX 2
-------
General Integration Accuracy     IntAcc      ... 4.020
Radial Grid Type                 RadialGrid  ... OptM3 with GC (2021)
Angular Grid (max. ang.)         AngularGrid ... 2 (Lebedev-110)
Angular grid pruning method      GridPruning ... 4 (adaptive)
Weight generation scheme         WeightScheme... Becke
Basis function cutoff            BFCut       ... 1.0000e-11
Integration weight cutoff        WCut        ... 1.0000e-14
Angular grids for H and He will be reduced by one unit
Partially contracted basis set               ... on
Rotationally invariant grid construction     ... off

Total number of grid points                  ...    23850
Total number of batches                      ...      384
Average number of points per batch           ...       62
Average number of grid points per atom       ...     1325
UseSFitting                                  ... on

GRIDX 3
-------
General Integration Accuracy     IntAcc      ... 4.338
Radial Grid Type                 RadialGrid  ... OptM3 with GC (2021)
Angular Grid (max. ang.)         AngularGrid ... 3 (Lebedev-194)
Angular grid pruning method      GridPruning ... 4 (adaptive)
Weight generation scheme         WeightScheme... Becke
Basis function cutoff            BFCut       ... 1.0000e-11
Integration weight cutoff        WCut        ... 1.0000e-14
Angular grids for H and He will be reduced by one unit
Partially contracted basis set               ... on
Rotationally invariant grid construction     ... off

Total number of grid points                  ...    52490
Total number of batches                      ...      830
Average number of points per batch           ...       63
Average number of grid points per atom       ...     2916
UseSFitting                                  ... on

Time for X-Grid setup             =    1.866 sec


--------------------
CPCM SOLVATION MODEL
--------------------
CPCM parameters:
  Epsilon                                         ...       2.4000
  Refrac                                          ...       1.4970
  Rsolv                                           ...       1.3000
  Surface type                                    ... GAUSSIAN VDW
  Epsilon function type                           ...         CPCM
Radii:
 Radius for C  used is    3.8550 Bohr (=   2.0400 Ang.)
 Radius for H  used is    2.4944 Bohr (=   1.3200 Ang.)
Calculating surface                               ...        done! (  0.0s)
GEPOL surface points                              ...          996
GEPOL Volume                                      ...    1144.6715
GEPOL Surface-area                                ...     615.5680
Calculating surface distance matrix               ...        done! (  0.0s)
Performing Cholesky decomposition & store         ...        done! (  0.0s)
Overall time for CPCM initialization              ...                 0.0s
--------------
SCF ITERATIONS
--------------
ITER       Energy         Delta-E        Max-DP      RMS-DP      [F,P]     Damp
               ***  Starting incremental Fock matrix formation  ***
  0   -385.5517845525   0.000000000000 0.03168081  0.00100920  0.1447053 0.7000
  1   -385.6545284243  -0.102743871763 0.02203160  0.00074309  0.0780908 0.7000
                               ***Turning on DIIS***
  2   -385.7017437208  -0.047215296568 0.04159173  0.00135056  0.0346976 0.0000
  3   -385.7682239457  -0.066480224898 0.01137931  0.00045129  0.0424616 0.0000
  4   -385.7855012533  -0.017277307593 0.00379296  0.00015162  0.0077662 0.0000
                      *** Initiating the SOSCF procedure ***
                           *** Shutting down DIIS ***
                      *** Re-Reading the Fockian *** 
                      *** Removing any level shift *** 
ITER      Energy       Delta-E        Grad      Rot      Max-DP    RMS-DP
  5   -385.78625489  -0.0007536333  0.000841  0.000841  0.001865  0.000061
               *** Restarting incremental Fock matrix formation ***
  6   -385.78623621   0.0000186734  0.000353  0.000847  0.002154  0.000066
  7   -385.78623662  -0.0000004074  0.000411  0.000439  0.000363  0.000011
  8   -385.78624042  -0.0000037960  0.000050  0.000095  0.000116  0.000005
  9   -385.78624042  -0.0000000055  0.000038  0.000052  0.000034  0.000001
 10   -385.78624049  -0.0000000652  0.000009  0.000028  0.000054  0.000001
 11   -385.78624048   0.0000000056  0.000013  0.000017  0.000027  0.000001
                 **** Energy Check signals convergence ****
              ***Rediagonalizing the Fockian in SOSCF/NRSCF***

               *****************************************************
               *                     SUCCESS                       *
               *           SCF CONVERGED AFTER  12 CYCLES          *
               *****************************************************

Old exchange energy                            =    -10.951526302 Eh
New exchange energy                            =    -10.951494606 Eh
Exchange energy change after final integration =      0.000031696 Eh
Total energy after final integration           =   -385.786208790 Eh
Final COS-X integration done in                =    33.774 sec

----------------
TOTAL SCF ENERGY
----------------

Total Energy       :         -385.78620879 Eh          -10497.77644 eV

Components:
Nuclear Repulsion  :          459.06018656 Eh           12491.66274 eV
Electronic Energy  :         -844.84639535 Eh          -22989.43918 eV
One Electron Energy:        -1429.27870423 Eh          -38892.65081 eV
Two Electron Energy:          584.43230888 Eh           15903.21163 eV
Max COSX asymmetry :            0.00000091 Eh               0.00002 eV
CPCM Dielectric    :           -0.00347690 Eh              -0.09461 eV

Virial components:
Potential Energy   :         -769.81082541 Eh          -20947.61752 eV
Kinetic Energy     :          384.02461661 Eh           10449.84108 eV
Virial Ratio       :            2.00458719


DFT components:
N(Alpha)           :       34.000049910428 electrons
N(Beta)            :       34.000049910428 electrons
N(Total)           :       68.000099820855 electrons
E(X)               :      -43.484405772614 Eh       
E(C)               :       -2.680790281117 Eh       
E(XC)              :      -46.165196053731 Eh       
DFET-embed. en.    :        0.000000000000 Eh       
CPCM Solvation Model Properties:
Surface-charge          :           -0.02888564
Charge-correction       :            0.00004127 Eh               0.00112 eV
Free-energy (cav+disp)  :  This term is not implemented in the current solvation scheme

---------------
SCF CONVERGENCE
---------------

  Last Energy change         ...   -4.8648e-09  Tolerance :   1.0000e-08
  Last MAX-Density change    ...    9.9920e-16  Tolerance :   1.0000e-07
  Last RMS-Density change    ...    1.3803e-17  Tolerance :   5.0000e-09
  Last Orbital Gradient      ...    1.0772e-06  Tolerance :   1.0000e-05
  Last Orbital Rotation      ...    1.8082e-06  Tolerance :   1.0000e-05

             **** THE GBW FILE WAS UPDATED (/scratch/dca0099.334989/Phos_dft_TZVP_naphtalene.gbw) ****
             **** DENSITY /scratch/dca0099.334989/Phos_dft_TZVP_naphtalene.scfp WAS UPDATED ****
             **** ENERGY FILE WAS UPDATED (/scratch/dca0099.334989/Phos_dft_TZVP_naphtalene.en.tmp) ****
             **** THE GBW FILE WAS UPDATED (/scratch/dca0099.334989/Phos_dft_TZVP_naphtalene.gbw) ****
             **** DENSITY /scratch/dca0099.334989/Phos_dft_TZVP_naphtalene.scfp WAS UPDATED ****
----------------
ORBITAL ENERGIES
----------------

  NO   OCC          E(Eh)            E(eV) 
   0   2.0000     -10.183225      -277.0996 
   1   2.0000     -10.182820      -277.0886 
   2   2.0000     -10.173992      -276.8484 
   3   2.0000     -10.173950      -276.8473 
   4   2.0000     -10.173864      -276.8449 
   5   2.0000     -10.173860      -276.8448 
   6   2.0000     -10.173315      -276.8300 
   7   2.0000     -10.173312      -276.8299 
   8   2.0000     -10.172970      -276.8206 
   9   2.0000     -10.172967      -276.8205 
  10   2.0000      -0.876989       -23.8641 
  11   2.0000      -0.823361       -22.4048 
  12   2.0000      -0.775094       -21.0914 
  13   2.0000      -0.742051       -20.1922 
  14   2.0000      -0.720191       -19.5974 
  15   2.0000      -0.626357       -17.0440 
  16   2.0000      -0.612547       -16.6682 
  17   2.0000      -0.597032       -16.2461 
  18   2.0000      -0.516099       -14.0438 
  19   2.0000      -0.509671       -13.8689 
  20   2.0000      -0.495744       -13.4899 
  21   2.0000      -0.447359       -12.1733 
  22   2.0000      -0.442813       -12.0496 
  23   2.0000      -0.418547       -11.3892 
  24   2.0000      -0.418093       -11.3769 
  25   2.0000      -0.400621       -10.9015 
  26   2.0000      -0.396892       -10.8000 
  27   2.0000      -0.369518       -10.0551 
  28   2.0000      -0.339940        -9.2502 
  29   2.0000      -0.333478        -9.0744 
  30   2.0000      -0.331477        -9.0200 
  31   2.0000      -0.291361        -7.9283 
  32   2.0000      -0.249959        -6.8017 
  33   2.0000      -0.222225        -6.0471 
  34   0.0000      -0.046354        -1.2614 
  35   0.0000      -0.018662        -0.5078 
  36   0.0000       0.015246         0.4149 
  37   0.0000       0.056261         1.5309 
  38   0.0000       0.067845         1.8462 
  39   0.0000       0.071066         1.9338 
  40   0.0000       0.088458         2.4071 
  41   0.0000       0.099547         2.7088 
  42   0.0000       0.101351         2.7579 
  43   0.0000       0.112086         3.0500 
  44   0.0000       0.126399         3.4395 
  45   0.0000       0.127224         3.4619 
  46   0.0000       0.154885         4.2146 
  47   0.0000       0.160155         4.3580 
  48   0.0000       0.163506         4.4492 
  49   0.0000       0.183929         5.0050 
  50   0.0000       0.190775         5.1912 
  51   0.0000       0.192507         5.2384 
  52   0.0000       0.197776         5.3817 
  53   0.0000       0.224671         6.1136 
  54   0.0000       0.234576         6.3832 
  55   0.0000       0.246382         6.7044 
  56   0.0000       0.246530         6.7084 
  57   0.0000       0.254559         6.9269 
  58   0.0000       0.257769         7.0142 
  59   0.0000       0.266930         7.2635 
  60   0.0000       0.278202         7.5703 
  61   0.0000       0.278804         7.5866 
  62   0.0000       0.278982         7.5915 
  63   0.0000       0.304906         8.2969 
  64   0.0000       0.309854         8.4315 
  65   0.0000       0.324149         8.8205 
  66   0.0000       0.324247         8.8232 
  67   0.0000       0.350716         9.5435 
  68   0.0000       0.351580         9.5670 
  69   0.0000       0.351865         9.5747 
  70   0.0000       0.352583         9.5943 
  71   0.0000       0.358369         9.7517 
  72   0.0000       0.376035        10.2324 
  73   0.0000       0.399720        10.8769 
  74   0.0000       0.400869        10.9082 
  75   0.0000       0.416274        11.3274 
  76   0.0000       0.419484        11.4147 
  77   0.0000       0.421808        11.4780 
  78   0.0000       0.430664        11.7190 
  79   0.0000       0.439047        11.9471 
  80   0.0000       0.440428        11.9847 
  81   0.0000       0.464711        12.6454 
  82   0.0000       0.468251        12.7418 
  83   0.0000       0.471834        12.8392 
  84   0.0000       0.486632        13.2419 
  85   0.0000       0.495475        13.4825 
  86   0.0000       0.497680        13.5426 
  87   0.0000       0.510835        13.9005 
  88   0.0000       0.520755        14.1705 
  89   0.0000       0.523981        14.2582 
  90   0.0000       0.533260        14.5108 
  91   0.0000       0.557947        15.1825 
  92   0.0000       0.566956        15.4277 
  93   0.0000       0.583337        15.8734 
  94   0.0000       0.624422        16.9914 
  95   0.0000       0.631739        17.1905 
  96   0.0000       0.668241        18.1837 
  97   0.0000       0.668259        18.1843 
  98   0.0000       0.675501        18.3813 
  99   0.0000       0.693970        18.8839 
 100   0.0000       0.705298        19.1921 
 101   0.0000       0.718679        19.5563 
 102   0.0000       0.719923        19.5901 
 103   0.0000       0.727042        19.7838 
 104   0.0000       0.732641        19.9362 
 105   0.0000       0.742254        20.1978 
 106   0.0000       0.744478        20.2583 
 107   0.0000       0.760138        20.6844 
 108   0.0000       0.760867        20.7042 
 109   0.0000       0.810026        22.0419 
 110   0.0000       0.833863        22.6906 
 111   0.0000       0.834177        22.6991 
 112   0.0000       0.843738        22.9593 
 113   0.0000       0.865642        23.5553 
 114   0.0000       0.871546        23.7160 
 115   0.0000       0.876724        23.8569 
 116   0.0000       0.884139        24.0586 
 117   0.0000       0.885096        24.0847 
 118   0.0000       0.915186        24.9035 
 119   0.0000       0.928576        25.2678 
 120   0.0000       0.948142        25.8002 
 121   0.0000       0.980347        26.6766 
 122   0.0000       0.984197        26.7814 
 123   0.0000       0.990153        26.9434 
 124   0.0000       0.999148        27.1882 
 125   0.0000       1.062391        28.9091 
 126   0.0000       1.075101        29.2550 
 127   0.0000       1.097506        29.8647 
 128   0.0000       1.121748        30.5243 
 129   0.0000       1.127942        30.6929 
 130   0.0000       1.142904        31.1000 
 131   0.0000       1.164737        31.6941 
 132   0.0000       1.196161        32.5492 
 133   0.0000       1.205006        32.7899 
 134   0.0000       1.221117        33.2283 
 135   0.0000       1.225779        33.3551 
 136   0.0000       1.228272        33.4230 
 137   0.0000       1.238321        33.6964 
 138   0.0000       1.239515        33.7289 
 139   0.0000       1.245751        33.8986 
 140   0.0000       1.246805        33.9273 
 141   0.0000       1.262401        34.3517 
 142   0.0000       1.276287        34.7295 
 143   0.0000       1.340373        36.4734 
 144   0.0000       1.352295        36.7978 
 145   0.0000       1.386894        37.7393 
 146   0.0000       1.388317        37.7780 
 147   0.0000       1.404000        38.2048 
 148   0.0000       1.410831        38.3907 
 149   0.0000       1.414246        38.4836 
 150   0.0000       1.451795        39.5054 
 151   0.0000       1.474288        40.1174 
 152   0.0000       1.485111        40.4119 
 153   0.0000       1.503462        40.9113 
 154   0.0000       1.506105        40.9832 
 155   0.0000       1.514564        41.2134 
 156   0.0000       1.515974        41.2518 
 157   0.0000       1.525202        41.5028 
 158   0.0000       1.549018        42.1509 
 159   0.0000       1.571103        42.7519 
 160   0.0000       1.572362        42.7861 
 161   0.0000       1.594346        43.3844 
 162   0.0000       1.658006        45.1166 
 163   0.0000       1.658343        45.1258 
 164   0.0000       1.659389        45.1543 
 165   0.0000       1.660567        45.1863 
 166   0.0000       1.672285        45.5052 
 167   0.0000       1.679170        45.6925 
 168   0.0000       1.696327        46.1594 
 169   0.0000       1.699410        46.2433 
 170   0.0000       1.709058        46.5058 
 171   0.0000       1.724120        46.9157 
 172   0.0000       1.753033        47.7025 
 173   0.0000       1.767474        48.0954 
 174   0.0000       1.831854        49.8473 
 175   0.0000       1.850416        50.3524 
 176   0.0000       1.851685        50.3869 
 177   0.0000       1.867775        50.8248 
 178   0.0000       1.922438        52.3122 
 179   0.0000       1.956345        53.2349 
 180   0.0000       1.964478        53.4562 
 181   0.0000       1.987154        54.0732 
 182   0.0000       1.999269        54.4029 
 183   0.0000       2.011276        54.7296 
 184   0.0000       2.024399        55.0867 
 185   0.0000       2.053725        55.8847 
 186   0.0000       2.088789        56.8388 
 187   0.0000       2.121630        57.7325 
 188   0.0000       2.127997        57.9058 
 189   0.0000       2.142287        58.2946 
 190   0.0000       2.169083        59.0237 
 191   0.0000       2.171207        59.0815 
 192   0.0000       2.196786        59.7776 
 193   0.0000       2.205379        60.0114 
 194   0.0000       2.250266        61.2329 
 195   0.0000       2.251534        61.2674 
 196   0.0000       2.257640        61.4335 
 197   0.0000       2.285933        62.2034 
 198   0.0000       2.303553        62.6829 
 199   0.0000       2.324767        63.2601 
 200   0.0000       2.406587        65.4866 
 201   0.0000       2.418295        65.8052 
 202   0.0000       2.439493        66.3820 
 203   0.0000       2.450143        66.6718 
 204   0.0000       2.460300        66.9482 
 205   0.0000       2.462988        67.0213 
 206   0.0000       2.559747        69.6543 
 207   0.0000       2.564373        69.7801 
 208   0.0000       2.572879        70.0116 
 209   0.0000       2.578213        70.1567 
 210   0.0000       2.579274        70.1856 
 211   0.0000       2.598601        70.7115 
 212   0.0000       2.614540        71.1453 
 213   0.0000       2.631987        71.6200 
 214   0.0000       2.651264        72.1445 
 215   0.0000       2.652393        72.1753 
 216   0.0000       2.659117        72.3583 
 217   0.0000       2.663164        72.4684 
 218   0.0000       2.705550        73.6218 
 219   0.0000       2.706474        73.6469 
 220   0.0000       2.729666        74.2780 
 221   0.0000       2.748726        74.7966 
 222   0.0000       2.753912        74.9378 
 223   0.0000       2.763460        75.1976 
 224   0.0000       2.779047        75.6217 
 225   0.0000       2.784882        75.7805 
 226   0.0000       2.791566        75.9624 
 227   0.0000       2.802131        76.2499 
 228   0.0000       2.810190        76.4692 
 229   0.0000       2.810706        76.4832 
 230   0.0000       2.825168        76.8767 
 231   0.0000       2.849217        77.5311 
 232   0.0000       2.880705        78.3880 
 233   0.0000       2.888021        78.5871 
 234   0.0000       2.888482        78.5996 
 235   0.0000       2.902402        78.9784 
 236   0.0000       2.905844        79.0720 
 237   0.0000       2.910993        79.2122 
 238   0.0000       2.933037        79.8120 
 239   0.0000       2.949945        80.2721 
 240   0.0000       2.969054        80.7921 
 241   0.0000       2.979901        81.0872 
 242   0.0000       3.004853        81.7662 
 243   0.0000       3.008166        81.8564 
 244   0.0000       3.011219        81.9394 
 245   0.0000       3.013111        81.9909 
 246   0.0000       3.036084        82.6160 
 247   0.0000       3.089853        84.0792 
 248   0.0000       3.100174        84.3600 
 249   0.0000       3.118565        84.8605 
 250   0.0000       3.138203        85.3948 
 251   0.0000       3.148728        85.6812 
 252   0.0000       3.153408        85.8086 
 253   0.0000       3.159100        85.9635 
 254   0.0000       3.189877        86.8010 
 255   0.0000       3.204578        87.2010 
 256   0.0000       3.209653        87.3391 
 257   0.0000       3.212410        87.4141 
 258   0.0000       3.215507        87.4984 
 259   0.0000       3.240793        88.1865 
 260   0.0000       3.249215        88.4156 
 261   0.0000       3.252890        88.5156 
 262   0.0000       3.266668        88.8905 
 263   0.0000       3.268379        88.9371 
 264   0.0000       3.308417        90.0266 
 265   0.0000       3.323565        90.4388 
 266   0.0000       3.325596        90.4941 
 267   0.0000       3.334484        90.7359 
 268   0.0000       3.345228        91.0283 
 269   0.0000       3.367730        91.6406 
 270   0.0000       3.369641        91.6926 
 271   0.0000       3.375667        91.8566 
 272   0.0000       3.388867        92.2158 
 273   0.0000       3.440799        93.6289 
 274   0.0000       3.442108        93.6645 
 275   0.0000       3.451290        93.9144 
 276   0.0000       3.471265        94.4579 
 277   0.0000       3.480263        94.7028 
 278   0.0000       3.488487        94.9266 
 279   0.0000       3.492253        95.0290 
 280   0.0000       3.507587        95.4463 
 281   0.0000       3.533650        96.1555 
 282   0.0000       3.555546        96.7513 
 283   0.0000       3.581020        97.4445 
 284   0.0000       3.585137        97.5565 
 285   0.0000       3.603718        98.0621 
 286   0.0000       3.622294        98.5676 
 287   0.0000       3.639331        99.0312 
 288   0.0000       3.660050        99.5950 
 289   0.0000       3.695590       100.5621 
 290   0.0000       3.715882       101.1143 
 291   0.0000       3.749651       102.0332 
 292   0.0000       3.821213       103.9805 
 293   0.0000       3.831304       104.2551 
 294   0.0000       3.848638       104.7268 
 295   0.0000       3.850308       104.7722 
 296   0.0000       3.860712       105.0553 
 297   0.0000       3.923814       106.7724 
 298   0.0000       3.930778       106.9619 
 299   0.0000       3.947972       107.4298 
 300   0.0000       3.972329       108.0926 
 301   0.0000       3.982399       108.3666 
 302   0.0000       4.034302       109.7789 
 303   0.0000       4.048182       110.1566 
 304   0.0000       4.063206       110.5654 
 305   0.0000       4.128943       112.3543 
 306   0.0000       4.142607       112.7261 
 307   0.0000       4.143325       112.7456 
 308   0.0000       4.162746       113.2741 
 309   0.0000       4.165990       113.3623 
 310   0.0000       4.176686       113.6534 
 311   0.0000       4.221888       114.8834 
 312   0.0000       4.240116       115.3794 
 313   0.0000       4.251051       115.6770 
 314   0.0000       4.256052       115.8131 
 315   0.0000       4.283621       116.5633 
 316   0.0000       4.284664       116.5916 
 317   0.0000       4.330017       117.8257 
 318   0.0000       4.346893       118.2850 
 319   0.0000       4.374777       119.0437 
 320   0.0000       4.430820       120.5687 
 321   0.0000       4.468582       121.5963 
 322   0.0000       4.477369       121.8354 
 323   0.0000       4.536798       123.4526 
 324   0.0000       4.548304       123.7656 
 325   0.0000       4.642115       126.3184 
 326   0.0000       4.703764       127.9959 
 327   0.0000       4.719638       128.4279 
 328   0.0000       4.730131       128.7134 
 329   0.0000       4.770733       129.8183 
 330   0.0000       4.782676       130.1432 
 331   0.0000       4.791003       130.3698 
 332   0.0000       4.812305       130.9495 
 333   0.0000       4.890724       133.0834 
 334   0.0000       4.963489       135.0634 
 335   0.0000       5.050433       137.4293 
 336   0.0000       5.065500       137.8393 
 337   0.0000       5.091925       138.5583 
 338   0.0000       5.104447       138.8991 
 339   0.0000       5.202209       141.5593 
 340   0.0000       5.218812       142.0111 
 341   0.0000       5.351734       145.6281 
 342   0.0000       5.361009       145.8805 
 343   0.0000       5.399568       146.9297 
 344   0.0000       5.605850       152.5429 
 345   0.0000       5.611593       152.6992 
 346   0.0000       5.678898       154.5307 
 347   0.0000       5.938958       161.6073 
 348   0.0000      21.824131       593.8648 
 349   0.0000      22.540780       613.3658 
 350   0.0000      22.608218       615.2009 
 351   0.0000      22.627279       615.7196 
 352   0.0000      22.674899       617.0154 
 353   0.0000      22.706886       617.8858 
 354   0.0000      22.829282       621.2163 
 355   0.0000      22.922142       623.7432 
 356   0.0000      23.024700       626.5339 
 357   0.0000      23.571642       641.4170 

                    ********************************
                    * MULLIKEN POPULATION ANALYSIS *
                    ********************************

-----------------------
MULLIKEN ATOMIC CHARGES
-----------------------
   0 C :   -0.118440
   1 C :   -0.192644
   2 C :    0.131633
   3 C :    0.131698
   4 C :   -0.191163
   5 C :   -0.119843
   6 H :    0.119249
   7 H :    0.126191
   8 H :    0.119068
   9 C :   -0.191104
  10 C :   -0.192612
  11 H :    0.119228
  12 H :    0.125939
  13 C :   -0.118530
  14 C :   -0.119853
  15 H :    0.119071
  16 H :    0.126173
  17 H :    0.125940
Sum of atomic charges:    0.0000000

--------------------------------
MULLIKEN REDUCED ORBITAL CHARGES
--------------------------------
  0 C s       :     3.202666  s :     3.202666
      pz      :     0.967951  p :     2.828760
      px      :     0.916621
      py      :     0.944188
      dz2     :     0.004725  d :     0.079746
      dxz     :     0.018119
      dyz     :     0.009474
      dx2y2   :     0.019177
      dxy     :     0.028250
      f0      :     0.001478  f :     0.007269
      f+1     :     0.000460
      f-1     :     0.000599
      f+2     :     0.000938
      f-2     :     0.000386
      f+3     :     0.001243
      f-3     :     0.002165
  1 C s       :     3.264313  s :     3.264313
      pz      :     0.975909  p :     2.839022
      px      :     0.932081
      py      :     0.931032
      dz2     :     0.004514  d :     0.082066
      dxz     :     0.019792
      dyz     :     0.009070
      dx2y2   :     0.019226
      dxy     :     0.029463
      f0      :     0.001438  f :     0.007244
      f+1     :     0.000472
      f-1     :     0.000574
      f+2     :     0.000788
      f-2     :     0.000454
      f+3     :     0.001289
      f-3     :     0.002228
  2 C s       :     3.166261  s :     3.166261
      pz      :     0.919426  p :     2.573840
      px      :     0.821435
      py      :     0.832979
      dz2     :     0.006318  d :     0.118123
      dxz     :     0.024820
      dyz     :     0.021257
      dx2y2   :     0.031989
      dxy     :     0.033739
      f0      :     0.001734  f :     0.010142
      f+1     :     0.000625
      f-1     :     0.000594
      f+2     :     0.000934
      f-2     :     0.001027
      f+3     :     0.001664
      f-3     :     0.003564
  3 C s       :     3.166351  s :     3.166351
      pz      :     0.919425  p :     2.573718
      px      :     0.821380
      py      :     0.832913
      dz2     :     0.006321  d :     0.118091
      dxz     :     0.024819
      dyz     :     0.021258
      dx2y2   :     0.031965
      dxy     :     0.033727
      f0      :     0.001734  f :     0.010143
      f+1     :     0.000625
      f-1     :     0.000594
      f+2     :     0.000934
      f-2     :     0.001027
      f+3     :     0.001664
      f-3     :     0.003565
  4 C s       :     3.263487  s :     3.263487
      pz      :     0.975915  p :     2.838343
      px      :     0.895087
      py      :     0.967341
      dz2     :     0.004540  d :     0.082087
      dxz     :     0.018862
      dyz     :     0.010002
      dx2y2   :     0.023067
      dxy     :     0.025616
      f0      :     0.001439  f :     0.007246
      f+1     :     0.000503
      f-1     :     0.000541
      f+2     :     0.000860
      f-2     :     0.000382
      f+3     :     0.001300
      f-3     :     0.002221
  5 C s       :     3.203848  s :     3.203848
      pz      :     0.967956  p :     2.828999
      px      :     0.963941
      py      :     0.897102
      dz2     :     0.004720  d :     0.079729
      dxz     :     0.004931
      dyz     :     0.022657
      dx2y2   :     0.029811
      dxy     :     0.017611
      f0      :     0.001477  f :     0.007268
      f+1     :     0.000611
      f-1     :     0.000449
      f+2     :     0.000176
      f-2     :     0.001146
      f+3     :     0.001245
      f-3     :     0.002164
  6 H s       :     0.858497  s :     0.858497
      pz      :     0.004787  p :     0.022253
      px      :     0.006264
      py      :     0.011202
  7 H s       :     0.851499  s :     0.851499
      pz      :     0.004814  p :     0.022311
      px      :     0.006129
      py      :     0.011368
  8 H s       :     0.858665  s :     0.858665
      pz      :     0.004788  p :     0.022266
      px      :     0.006087
      py      :     0.011391
  9 C s       :     3.263385  s :     3.263385
      pz      :     0.975914  p :     2.838377
      px      :     0.895157
      py      :     0.967306
      dz2     :     0.004540  d :     0.082097
      dxz     :     0.018861
      dyz     :     0.010002
      dx2y2   :     0.023077
      dxy     :     0.025617
      f0      :     0.001439  f :     0.007246
      f+1     :     0.000503
      f-1     :     0.000541
      f+2     :     0.000860
      f-2     :     0.000382
      f+3     :     0.001299
      f-3     :     0.002221
 10 C s       :     3.264238  s :     3.264238
      pz      :     0.975904  p :     2.839046
      px      :     0.932052
      py      :     0.931089
      dz2     :     0.004512  d :     0.082084
      dxz     :     0.019792
      dyz     :     0.009070
      dx2y2   :     0.019235
      dxy     :     0.029475
      f0      :     0.001438  f :     0.007244
      f+1     :     0.000472
      f-1     :     0.000574
      f+2     :     0.000788
      f-2     :     0.000454
      f+3     :     0.001289
      f-3     :     0.002228
 11 H s       :     0.858519  s :     0.858519
      pz      :     0.004787  p :     0.022253
      px      :     0.006264
      py      :     0.011201
 12 H s       :     0.851752  s :     0.851752
      pz      :     0.004815  p :     0.022309
      px      :     0.013929
      py      :     0.003565
 13 C s       :     3.202795  s :     3.202795
      pz      :     0.967950  p :     2.828717
      px      :     0.916624
      py      :     0.944142
      dz2     :     0.004725  d :     0.079749
      dxz     :     0.018119
      dyz     :     0.009474
      dx2y2   :     0.019177
      dxy     :     0.028253
      f0      :     0.001478  f :     0.007269
      f+1     :     0.000460
      f-1     :     0.000599
      f+2     :     0.000938
      f-2     :     0.000386
      f+3     :     0.001243
      f-3     :     0.002165
 14 C s       :     3.203942  s :     3.203942
      pz      :     0.967956  p :     2.828918
      px      :     0.963876
      py      :     0.897086
      dz2     :     0.004722  d :     0.079725
      dxz     :     0.004931
      dyz     :     0.022657
      dx2y2   :     0.029809
      dxy     :     0.017606
      f0      :     0.001477  f :     0.007268
      f+1     :     0.000611
      f-1     :     0.000449
      f+2     :     0.000176
      f-2     :     0.001146
      f+3     :     0.001245
      f-3     :     0.002164
 15 H s       :     0.858663  s :     0.858663
      pz      :     0.004788  p :     0.022266
      px      :     0.006087
      py      :     0.011391
 16 H s       :     0.851516  s :     0.851516
      pz      :     0.004814  p :     0.022311
      px      :     0.006129
      py      :     0.011367
 17 H s       :     0.851751  s :     0.851751
      pz      :     0.004815  p :     0.022309
      px      :     0.013929
      py      :     0.003565


                     *******************************
                     * LOEWDIN POPULATION ANALYSIS *
                     *******************************

----------------------
LOEWDIN ATOMIC CHARGES
----------------------
   0 C :   -0.143721
   1 C :   -0.104243
   2 C :   -0.095115
   3 C :   -0.095110
   4 C :   -0.104276
   5 C :   -0.143776
   6 H :    0.149499
   7 H :    0.146067
   8 H :    0.149505
   9 C :   -0.104273
  10 C :   -0.104241
  11 H :    0.149500
  12 H :    0.146053
  13 C :   -0.143724
  14 C :   -0.143772
  15 H :    0.149505
  16 H :    0.146068
  17 H :    0.146053

-------------------------------
LOEWDIN REDUCED ORBITAL CHARGES
-------------------------------
  0 C s       :     2.765833  s :     2.765833
      pz      :     0.887411  p :     2.948603
      px      :     1.058816
      py      :     1.002377
      dz2     :     0.025654  d :     0.386073
      dxz     :     0.060896
      dyz     :     0.030129
      dx2y2   :     0.115566
      dxy     :     0.153827
      f0      :     0.002992  f :     0.043212
      f+1     :     0.004251
      f-1     :     0.003469
      f+2     :     0.006120
      f-2     :     0.002697
      f+3     :     0.008278
      f-3     :     0.015406
  1 C s       :     2.758282  s :     2.758282
      pz      :     0.884817  p :     2.921934
      px      :     1.049146
      py      :     0.987972
      dz2     :     0.025754  d :     0.381607
      dxz     :     0.062447
      dyz     :     0.026985
      dx2y2   :     0.113177
      dxy     :     0.153245
      f0      :     0.002974  f :     0.042420
      f+1     :     0.004164
      f-1     :     0.003450
      f+2     :     0.005525
      f-2     :     0.002786
      f+3     :     0.008314
      f-3     :     0.015206
  2 C s       :     2.691565  s :     2.691565
      pz      :     0.835319  p :     2.833316
      px      :     0.998953
      py      :     0.999044
      dz2     :     0.034183  d :     0.512464
      dxz     :     0.073819
      dyz     :     0.068216
      dx2y2   :     0.169472
      dxy     :     0.166774
      f0      :     0.003718  f :     0.057771
      f+1     :     0.004221
      f-1     :     0.004181
      f+2     :     0.006444
      f-2     :     0.006743
      f+3     :     0.009637
      f-3     :     0.022827
  3 C s       :     2.691565  s :     2.691565
      pz      :     0.835318  p :     2.833313
      px      :     0.998948
      py      :     0.999047
      dz2     :     0.034183  d :     0.512461
      dxz     :     0.073816
      dyz     :     0.068218
      dx2y2   :     0.169475
      dxy     :     0.166770
      f0      :     0.003718  f :     0.057771
      f+1     :     0.004220
      f-1     :     0.004181
      f+2     :     0.006445
      f-2     :     0.006743
      f+3     :     0.009637
      f-3     :     0.022827
  4 C s       :     2.758287  s :     2.758287
      pz      :     0.884833  p :     2.921948
      px      :     1.017136
      py      :     1.019979
      dz2     :     0.025758  d :     0.381623
      dxz     :     0.059867
      dyz     :     0.029574
      dx2y2   :     0.121199
      dxy     :     0.145224
      f0      :     0.002974  f :     0.042419
      f+1     :     0.004001
      f-1     :     0.003613
      f+2     :     0.005690
      f-2     :     0.002621
      f+3     :     0.008348
      f-3     :     0.015172
  5 C s       :     2.765836  s :     2.765836
      pz      :     0.887447  p :     2.948641
      px      :     0.991372
      py      :     1.069822
      dz2     :     0.025654  d :     0.386091
      dxz     :     0.011995
      dyz     :     0.079039
      dx2y2   :     0.166407
      dxy     :     0.102995
      f0      :     0.002992  f :     0.043209
      f+1     :     0.003243
      f-1     :     0.004477
      f+2     :     0.001279
      f-2     :     0.007536
      f+3     :     0.008277
      f-3     :     0.015405
  6 H s       :     0.791611  s :     0.791611
      pz      :     0.013614  p :     0.058890
      px      :     0.016869
      py      :     0.028407
  7 H s       :     0.795137  s :     0.795137
      pz      :     0.013444  p :     0.058796
      px      :     0.016544
      py      :     0.028807
  8 H s       :     0.791600  s :     0.791600
      pz      :     0.013616  p :     0.058895
      px      :     0.016609
      py      :     0.028670
  9 C s       :     2.758289  s :     2.758289
      pz      :     0.884832  p :     2.921948
      px      :     1.017139
      py      :     1.019976
      dz2     :     0.025757  d :     0.381618
      dxz     :     0.059866
      dyz     :     0.029574
      dx2y2   :     0.121197
      dxy     :     0.145223
      f0      :     0.002974  f :     0.042418
      f+1     :     0.004001
      f-1     :     0.003613
      f+2     :     0.005690
      f-2     :     0.002620
      f+3     :     0.008348
      f-3     :     0.015172
 10 C s       :     2.758281  s :     2.758281
      pz      :     0.884813  p :     2.921933
      px      :     1.049146
      py      :     0.987975
      dz2     :     0.025754  d :     0.381607
      dxz     :     0.062446
      dyz     :     0.026985
      dx2y2   :     0.113176
      dxy     :     0.153246
      f0      :     0.002974  f :     0.042420
      f+1     :     0.004164
      f-1     :     0.003450
      f+2     :     0.005525
      f-2     :     0.002786
      f+3     :     0.008314
      f-3     :     0.015207
 11 H s       :     0.791611  s :     0.791611
      pz      :     0.013614  p :     0.058889
      px      :     0.016869
      py      :     0.028406
 12 H s       :     0.795154  s :     0.795154
      pz      :     0.013445  p :     0.058793
      px      :     0.034543
      py      :     0.010804
 13 C s       :     2.765831  s :     2.765831
      pz      :     0.887409  p :     2.948603
      px      :     1.058816
      py      :     1.002378
      dz2     :     0.025654  d :     0.386077
      dxz     :     0.060898
      dyz     :     0.030129
      dx2y2   :     0.115567
      dxy     :     0.153830
      f0      :     0.002992  f :     0.043212
      f+1     :     0.004251
      f-1     :     0.003469
      f+2     :     0.006119
      f-2     :     0.002697
      f+3     :     0.008278
      f-3     :     0.015406
 14 C s       :     2.765836  s :     2.765836
      pz      :     0.887447  p :     2.948638
      px      :     0.991371
      py      :     1.069820
      dz2     :     0.025654  d :     0.386089
      dxz     :     0.011995
      dyz     :     0.079039
      dx2y2   :     0.166406
      dxy     :     0.102995
      f0      :     0.002992  f :     0.043208
      f+1     :     0.003243
      f-1     :     0.004477
      f+2     :     0.001279
      f-2     :     0.007536
      f+3     :     0.008276
      f-3     :     0.015404
 15 H s       :     0.791599  s :     0.791599
      pz      :     0.013615  p :     0.058895
      px      :     0.016610
      py      :     0.028670
 16 H s       :     0.795136  s :     0.795136
      pz      :     0.013444  p :     0.058795
      px      :     0.016544
      py      :     0.028807
 17 H s       :     0.795154  s :     0.795154
      pz      :     0.013445  p :     0.058793
      px      :     0.034543
      py      :     0.010804


                      *****************************
                      * MAYER POPULATION ANALYSIS *
                      *****************************

  NA   - Mulliken gross atomic population
  ZA   - Total nuclear charge
  QA   - Mulliken gross atomic charge
  VA   - Mayer's total valence
  BVA  - Mayer's bonded valence
  FA   - Mayer's free valence

  ATOM       NA         ZA         QA         VA         BVA        FA
  0 C      6.1184     6.0000    -0.1184     3.8769     3.8769     0.0000
  1 C      6.1926     6.0000    -0.1926     3.8840     3.8840     0.0000
  2 C      5.8684     6.0000     0.1316     3.7187     3.7187     0.0000
  3 C      5.8683     6.0000     0.1317     3.7187     3.7187    -0.0000
  4 C      6.1912     6.0000    -0.1912     3.8824     3.8824     0.0000
  5 C      6.1198     6.0000    -0.1198     3.8781     3.8781     0.0000
  6 H      0.8808     1.0000     0.1192     0.9752     0.9752    -0.0000
  7 H      0.8738     1.0000     0.1262     0.9660     0.9660     0.0000
  8 H      0.8809     1.0000     0.1191     0.9753     0.9753     0.0000
  9 C      6.1911     6.0000    -0.1911     3.8825     3.8825     0.0000
 10 C      6.1926     6.0000    -0.1926     3.8841     3.8841    -0.0000
 11 H      0.8808     1.0000     0.1192     0.9752     0.9752     0.0000
 12 H      0.8741     1.0000     0.1259     0.9662     0.9662    -0.0000
 13 C      6.1185     6.0000    -0.1185     3.8767     3.8767     0.0000
 14 C      6.1199     6.0000    -0.1199     3.8779     3.8779     0.0000
 15 H      0.8809     1.0000     0.1191     0.9753     0.9753    -0.0000
 16 H      0.8738     1.0000     0.1262     0.9660     0.9660    -0.0000
 17 H      0.8741     1.0000     0.1259     0.9662     0.9662    -0.0000

  Mayer bond orders larger than 0.100000
B(  0-C ,  1-C ) :   1.5307 B(  0-C ,  5-C ) :   1.2560 B(  0-C ,  7-H ) :   0.9750 
B(  1-C ,  2-C ) :   1.2107 B(  1-C ,  8-H ) :   0.9812 B(  2-C ,  3-C ) :   1.2331 
B(  2-C ,  9-C ) :   1.2106 B(  3-C ,  4-C ) :   1.2104 B(  3-C , 10-C ) :   1.2109 
B(  4-C ,  5-C ) :   1.5309 B(  4-C , 11-H ) :   0.9807 B(  5-C , 12-H ) :   0.9752 
B(  6-H ,  9-C ) :   0.9806 B(  9-C , 14-C ) :   1.5308 B( 10-C , 13-C ) :   1.5306 
B( 10-C , 15-H ) :   0.9812 B( 13-C , 14-C ) :   1.2559 B( 13-C , 16-H ) :   0.9750 
B( 14-C , 17-H ) :   0.9752 

-------
TIMINGS
-------

Total SCF time: 0 days 0 hours 3 min 53 sec 

Total time                  ....     233.393 sec
Sum of individual times     ....     232.692 sec  ( 99.7%)

Fock matrix formation       ....     226.999 sec  ( 97.3%)
  Split-RI-J                ....      14.008 sec  (  6.2% of F)
  Chain of spheres X        ....     168.253 sec  ( 74.1% of F)
  XC integration            ....      27.017 sec  ( 11.9% of F)
    Basis function eval.    ....       8.166 sec  ( 30.2% of XC)
    Density eval.           ....       7.791 sec  ( 28.8% of XC)
    XC-Functional eval.     ....       0.886 sec  (  3.3% of XC)
    XC-Potential eval.      ....       9.672 sec  ( 35.8% of XC)
Diagonalization             ....       0.140 sec  (  0.1%)
[...]
Average number of points per batch           ...       61
Average number of grid points per atom       ...      700

---------------------
COSX-INTEGRATION GRID
---------------------

General Integration Accuracy     IntAcc      ... 3.067
Radial Grid Type                 RadialGrid  ... OptM3 with GC (2021)
Angular Grid (max. ang.)         AngularGrid ... 1 (Lebedev-50)
Angular grid pruning method      GridPruning ... 4 (adaptive)
Weight generation scheme         WeightScheme... Becke
Basis function cutoff            BFCut       ... 1.0000e-11
Integration weight cutoff        WCut        ... 1.0000e-14
Angular grids for H and He will be reduced by one unit
Partially contracted basis set               ... on
Rotationally invariant grid construction     ... off

Total number of grid points                  ...     5774
Total number of batches                      ...      102
Average number of points per batch           ...       56
Average number of grid points per atom       ...      321

---------------
TD-DFT XC SETUP
---------------

DFT calculation                         ... on
Name of the grid file                   ... /scratch/dca0099.334989/Phos_dft_TZVP_naphtalene_job3.grid_cis.tmp
Exchange functional (TD-DFT)            ... B88
   X-Alpha parameter    XAlpha (TD-DFT) ...  0.666667
   Becke's b parameter  XBeta (TD-DFT)  ...  0.004200
Correlation functional (TD-DFT)         ... LYP
 LDA part of GGA corr.  LDAOpt (TD-DFT) ... VWN-5
Hybrid DFT                              ... on
   Exchange mixing (TD-DFT)             ...  0.200
   GGA exch. scaling (TD-DFT)           ...  0.720
   GGA corr. scaling (TD-DFT)           ...  0.810

Building densities             ... done
Calculating rho(r) on the grid ... done
Building xc-kernel on the grid ... done
                    *** TD-DFT CALCULATION INITIALIZED ***

-----------------------------
    LR-CPCM (equilibrium)
-----------------------------

Setting up LR-CPCM             ... done

-------------------
RPA-DIAGONALIZATION
-------------------

Dimension of the (A+B)(A-B) eigenvalue problem ...   7776
Number of roots to be determined               ...      6
Maximum size of the expansion space            ...    180
Convergence tolerance for the residual         ...    2.500e-07
Convergence tolerance for the energies         ...    2.500e-07
Orthogonality tolerance                        ...    1.000e-14
Constructing the preconditioner                ... o.k.
Building the initial guess                     ... o.k.
Number of trial vectors determined             ...    180


                       ****Iteration    0****

   Memory handling for direct AO based RPA:
   Memory per vector needed      ...     5 MB
   Memory needed                 ...    91 MB
   Memory available              ... 120000 MB
   Number of vectors per batch   ... 23557
   Number of batches             ...     1
   Time for densities:            0.022
   Time for XC-Integration:       7.673
   Time for K (COSX):            17.406
   Time for RI-J (Direct):       18.322
   Time for LR-CPCM terms:        4.307
   Time for Sigma-Completion:     0.031
   Size of expansion space: 18
   Lowest Energy          :     0.166245536601
   Maximum Energy change  :     0.243871788732 (vector 5)
   Maximum residual norm  :     0.087347935358

                       ****Iteration    1****
   Time for densities:            0.006
   Time for XC-Integration:       2.451
   Time for K (COSX):            15.540
   Time for RI-J (Direct):        5.305
   Time for LR-CPCM terms:        2.360
   Time for Sigma-Completion:     0.008
   Size of expansion space: 24
   Lowest Energy          :     0.159927572073
   Maximum Energy change  :     0.023725666204 (vector 3)
   Maximum residual norm  :     0.003691391852

                       ****Iteration    2****
   Time for densities:            0.006
   Time for XC-Integration:       2.444
   Time for K (COSX):            15.613
   Time for RI-J (Direct):        5.282
   Time for LR-CPCM terms:        2.365
   Time for Sigma-Completion:     0.008
   Size of expansion space: 30
   Lowest Energy          :     0.158775013623
   Maximum Energy change  :     0.001528886263 (vector 5)
   Maximum residual norm  :     0.036577603550

                       ****Iteration    3****
   Time for densities:            0.006
   Time for XC-Integration:       2.472
   Time for K (COSX):            15.532
   Time for RI-J (Direct):        5.278
   Time for LR-CPCM terms:        2.364
   Time for Sigma-Completion:     0.009
   Size of expansion space: 36
   Lowest Energy          :     0.158652192904
   Maximum Energy change  :     0.010829715097 (vector 5)
   Maximum residual norm  :     0.000853180432

                       ****Iteration    4****
   Time for densities:            0.007
   Time for XC-Integration:       2.480
   Time for K (COSX):            15.666
   Time for RI-J (Direct):        5.295
   Time for LR-CPCM terms:        2.371
   Time for Sigma-Completion:     0.008
   Size of expansion space: 42
   Lowest Energy          :     0.158553052536
   Maximum Energy change  :     0.000342120790 (vector 5)
   Maximum residual norm  :     0.000376565375

                       ****Iteration    5****
   Time for densities:            0.007
   Time for XC-Integration:       2.493
   Time for K (COSX):            15.575
   Time for RI-J (Direct):        5.316
   Time for LR-CPCM terms:        2.369
   Time for Sigma-Completion:     0.008
   Size of expansion space: 48
   Lowest Energy          :     0.158547857943
   Maximum Energy change  :     0.000289528689 (vector 5)
   Maximum residual norm  :     0.000055558112

                       ****Iteration    6****
   Time for densities:            0.007
   Time for XC-Integration:       2.491
   Time for K (COSX):            15.571
   Time for RI-J (Direct):        5.323
   Time for LR-CPCM terms:        2.373
   Time for Sigma-Completion:     0.008
   Size of expansion space: 54
   Lowest Energy          :     0.158547355866
   Maximum Energy change  :     0.000029367550 (vector 5)
   Maximum residual norm  :     0.000006911762

                       ****Iteration    7****
   Time for densities:            0.007
   Time for XC-Integration:       2.498
   Time for K (COSX):            15.603
   Time for RI-J (Direct):        5.345
   Time for LR-CPCM terms:        2.376
   Time for Sigma-Completion:     0.009
   Size of expansion space: 60
   Lowest Energy          :     0.158547245158
   Maximum Energy change  :     0.000003129372 (vector 5)
   Maximum residual norm  :     0.000001704335

                       ****Iteration    8****
   Time for densities:            0.007
   Time for XC-Integration:       2.517
   Time for K (COSX):            15.587
   Time for RI-J (Direct):        5.349
   Time for LR-CPCM terms:        2.380
   Time for Sigma-Completion:     0.009
   Size of expansion space: 66
   Lowest Energy          :     0.158547242188
   Maximum Energy change  :     0.002114521503 (vector 4)
   Maximum residual norm  :     0.012865277983

                       ****Iteration    9****
   Time for densities:            0.007
   Time for XC-Integration:       2.520
   Time for K (COSX):            15.573
   Time for RI-J (Direct):        5.376
   Time for LR-CPCM terms:        2.388
   Time for Sigma-Completion:     0.009
   Size of expansion space: 72
   Lowest Energy          :     0.158547238182
   Maximum Energy change  :     0.005036993137 (vector 4)
   Maximum residual norm  :     0.000279266355

                       ****Iteration   10****
   Time for densities:            0.007
   Time for XC-Integration:       2.531
   Time for K (COSX):            15.623
   Time for RI-J (Direct):        5.375
   Time for LR-CPCM terms:        2.383
   Time for Sigma-Completion:     0.008
   Size of expansion space: 78
   Lowest Energy          :     0.158547238053
   Maximum Energy change  :     0.000104268119 (vector 4)
   Maximum residual norm  :     0.000264986686

                       ****Iteration   11****
   Time for densities:            0.007
   Time for XC-Integration:       2.538
   Time for K (COSX):            15.568
   Time for RI-J (Direct):        5.352
   Time for LR-CPCM terms:        2.387
   Time for Sigma-Completion:     0.008
   Size of expansion space: 84
   Lowest Energy          :     0.158547238033
   Maximum Energy change  :     0.000183416569 (vector 4)
   Maximum residual norm  :     0.000017118752

                       ****Iteration   12****
   Time for densities:            0.006
   Time for XC-Integration:       2.142
   Time for K (COSX):            15.517
   Time for RI-J (Direct):        4.500
   Time for LR-CPCM terms:        2.195
   Time for Sigma-Completion:     0.007
   Size of expansion space: 89
   Lowest Energy          :     0.158547238030
   Maximum Energy change  :     0.000006158771 (vector 4)
   Maximum residual norm  :     0.000002512263

                       ****Iteration   13****
   Time for densities:            0.006
   Time for XC-Integration:       2.161
   Time for K (COSX):            15.540
   Time for RI-J (Direct):        4.504
   Time for LR-CPCM terms:        2.188
   Time for Sigma-Completion:     0.007
   Size of expansion space: 94
   Lowest Energy          :     0.158547238030
   Maximum Energy change  :     0.000001178427 (vector 4)
   Maximum residual norm  :     0.000000647119

                       ****Iteration   14****
   Time for densities:            0.005
   Time for XC-Integration:       1.765
   Time for K (COSX):            15.317
   Time for RI-J (Direct):        3.676
   Time for LR-CPCM terms:        1.993
   Time for Sigma-Completion:     0.006
   Size of expansion space: 98
   Lowest Energy          :     0.158547238030
   Maximum Energy change  :     0.000000215593 (vector 4)

         *** CONVERGENCE OF ENERGIES REACHED ***

Storing the converged CI vectors               ... /scratch/dca0099.334989/Phos_dft_TZVP_naphtalene_job3.cis1

                 *** DAVIDSON DONE ***

Total time for solving the RPA problem:   404.842sec

--------------------------------
TD-DFT EXCITED STATES (SINGLETS)
--------------------------------

the weight of the individual excitations are printed if larger than 0.01

STATE  1:  E=   0.158547 au      4.314 eV    34797.1 cm**-1 <S**2> =   0.000000
    32a ->  35a  :     0.032996 
    33a ->  34a  :     0.953858 

STATE  2:  E=   0.164121 au      4.466 eV    36020.5 cm**-1 <S**2> =   0.000000
    32a ->  34a  :     0.489482 
    33a ->  35a  :     0.507733 

STATE  3:  E=   0.205111 au      5.581 eV    45016.7 cm**-1 <S**2> =   0.000000
    32a ->  34a  :     0.496771 
    33a ->  35a  :     0.479535 

STATE  4:  E=   0.206413 au      5.617 eV    45302.4 cm**-1 <S**2> =   0.000000
    31a ->  34a  :     0.268125 
    33a ->  36a  :     0.729934 

STATE  5:  E=   0.220413 au      5.998 eV    48375.2 cm**-1 <S**2> =   0.000000
    31a ->  36a  :     0.024430 
    32a ->  35a  :     0.934398 
    33a ->  34a  :     0.026548 

STATE  6:  E=   0.227860 au      6.200 eV    50009.5 cm**-1 <S**2> =   0.000000
    29a ->  34a  :     0.013911 
    31a ->  35a  :     0.374872 
    32a ->  36a  :     0.600262 


-------------------------
TD-DFT-EXCITATION SPECTRA
-------------------------

Center of mass = (  0.0000, -0.0000, -0.0000)
Calculating the Dipole integrals                  ... done
Transforming integrals                            ... done
Calculating the Linear Momentum integrals         ... done
Transforming integrals                            ... done
Calculating angular momentum integrals            ... done
Transforming integrals                            ... done

-----------------------------------------------------------------------------
         ABSORPTION SPECTRUM VIA TRANSITION ELECTRIC DIPOLE MOMENTS
-----------------------------------------------------------------------------
State   Energy    Wavelength  fosc         T2        TX        TY        TZ  
        (cm-1)      (nm)                 (au**2)    (au)      (au)      (au) 
-----------------------------------------------------------------------------
   1   34797.1    287.4   0.099755119   0.94377  -0.49051   0.83855   0.00019
   2   36020.5    277.6   0.000036634   0.00033  -0.01573  -0.00935   0.00000
   3   45016.7    222.1   1.598624829  11.69090   2.95258   1.72429  -0.00013
   4   45302.4    220.7   0.000000022   0.00000  -0.00035  -0.00020   0.00000
   5   48375.2    206.7   0.301967776   2.05501  -0.71781   1.24087   0.00027
   6   50009.5    200.0   0.000000003   0.00000  -0.00012  -0.00008   0.00000

-----------------------------------------------------------------------------
         ABSORPTION SPECTRUM VIA TRANSITION VELOCITY DIPOLE MOMENTS
-----------------------------------------------------------------------------
State   Energy    Wavelength   fosc        P2         PX        PY        PZ  
        (cm-1)      (nm)                 (au**2)     (au)      (au)      (au) 
-----------------------------------------------------------------------------
   1   34797.1    287.4   0.104444235   0.02484   0.07959  -0.13603  -0.00003
   2   36020.5    277.6   0.000068440   0.00002   0.00353   0.00209  -0.00000
   3   45016.7    222.1   1.593672206   0.49032  -0.60466  -0.35314   0.00003
   4   45302.4    220.7   0.000000022   0.00000   0.00007   0.00004   0.00000
   5   48375.2    206.7   0.306396665   0.10130   0.15935  -0.27551  -0.00006
   6   50009.5    200.0   0.000000003   0.00000   0.00003   0.00002  -0.00000

-------------------------------------------------------------------
                             CD SPECTRUM
-------------------------------------------------------------------
State  Energy     Wavelength     R         MX        MY        MZ   
       (cm-1)       (nm)     (1e40*cgs)   (au)      (au)      (au)  
-------------------------------------------------------------------
   1   34797.1    287.4     -0.00009  -0.00000  -0.00000  -0.00000
   2   36020.5    277.6      0.00000   0.00000  -0.00000  -0.00001
   3   45016.7    222.1     -0.00048   0.00000  -0.00000   0.00008
   4   45302.4    220.7      0.00009   0.00006  -0.00007   0.48389
   5   48375.2    206.7     -0.00305   0.00000  -0.00000  -0.00002
   6   50009.5    200.0      0.00000   0.00000  -0.00000   0.00124

Total run time:      406.565 sec

           *** ORCA-CIS/TD-DFT FINISHED WITHOUT ERROR ***

Maximum memory used throughout the entire CIS-calculation: 200.8 MB

-----------------------
CIS/TD-DFT TOTAL ENERGY
-----------------------

    E(SCF)  =   -385.786208791 Eh
    DE(CIS) =      0.205111390 Eh (Root  3)
    ----------------------------- ---------
    E(tot)  =   -385.581097400 Eh


-------------------------   --------------------
FINAL SINGLE POINT ENERGY      -385.581097400225
-------------------------   --------------------


                            ***************************************
                            *     ORCA property calculations      *
                            ***************************************

                                    ---------------------
                                    Active property flags
                                    ---------------------
   (+) Dipole Moment


------------------------------------------------------------------------------
                       ORCA ELECTRIC PROPERTIES CALCULATION
------------------------------------------------------------------------------

Dipole Moment Calculation                       ... on
Quadrupole Moment Calculation                   ... off
Polarizability Calculation                      ... off
GBWName                                         ... /scratch/dca0099.334989/Phos_dft_TZVP_naphtalene_job3.gbw
Electron density                                ... /scratch/dca0099.334989/Phos_dft_TZVP_naphtalene_job3.scfp
The origin for moment calculation is the CENTER OF MASS  = ( 0.000000, -0.000000 -0.000000)

-------------
DIPOLE MOMENT
-------------
                                X             Y             Z
Electronic contribution:      0.00005       0.00000      -0.00001
Nuclear contribution   :     -0.00005       0.00001       0.00001
                        -----------------------------------------
Total Dipole Moment    :      0.00000       0.00001       0.00000
                        -----------------------------------------
Magnitude (a.u.)       :      0.00001
Magnitude (Debye)      :      0.00004



--------------------
Rotational spectrum 
--------------------
 
Rotational constants in cm-1:     0.104651     0.041365     0.029647 
Rotational constants in MHz :  3137.370576  1240.091757   888.786035 

 Dipole components along the rotational axes: 
x,y,z [a.u.] :     0.000009     0.000011     0.000002 
x,y,z [Debye]:     0.000022     0.000029     0.000004 

 

------------------------------------------------------------------------------
                           ORCA EXCITED STATE DYNAMICS
------------------------------------------------------------------------------

Requested calculation:				...phosphorescence
Coordinate system:				...Deloc. Internal (BAKER)
Lineshape function:				...Lorenztian
Excited state PES:				...adiabatic hessian
Apply Duschinky rotation:			...no
Use operator derivatives:			...yes
Convert derivatives between states:		...no
Use same frequencies:				...no
Multiroot calculation:				...no
Single mode calculation:			...no
Selected mode calculation:			...no

Ground state hessian:				Phos_dft_TZVP_naphtalene.GS.hess
Reading ground state hessian:			...done
Triplet state hessian:				Phos_dft_TZVP_naphtalene.TS.hess
Reading triplet state hessian:			...done

As an TS Hessian was given, HessFlag is now AH!
Adjusting all geometries to center of mass:	...done
Rotating the triplet state geometry:		...done
The RMSD is:	0.035154

Writting GS hessian to:				/scratch/dca0099.334989/Phos_dft_TZVP_naphtalene_job3.GS.hess
Calculating Wilson`s B Matrix:			...done
Converting to internal coordinates:		...done
Calculating rotation matrix J:			...done
Calculating displacement vector K:		...done
The sum of K*K is:				5.229635

Checking for transition data:			...done
Final check on derivatives:			...done
Writting GS hessian to:				/scratch/dca0099.334989/Phos_dft_TZVP_naphtalene_job3.GS.hess

          ***Everything is set, now computing the correlation function***

Homogeneous linewidth is:			50.00 cm-1
Number of points:				131072
Maximum time:					1592.65 fs
Spectral resolution:				3.33 cm-1
Temperature used:				298.15 K
Z value:					9.127953e-65
Cutoff for the correlation function:		1.00e-06
Adiabatic energy difference:			22650.19 cm-1
0-0 energy difference:				21491.08 cm-1
Reference transition dipole (x,y,z):		(2.95258e+00 0.00000e+00),
                                    		(1.72429e+00 0.00000e+00),
                                    		(-1.29324e-04 0.00000e+00) 
Calculating correlation function:		...done
Last element of the correlation function:	-0.000000,0.000000
Computing the Fourier Transform:		...done

The calculated phosphorescence rate constant is	3.845072e+08 s-1*
with 84.65% from FC and 15.35% from HT

*The rate is multiplied by the square of the refractive index

The phosphorescence spectrum was saved in		/scratch/dca0099.334989/Phos_dft_TZVP_naphtalene_job3.spectrum

Total run time: 0 hours 0 minutes 11 seconds

                      ****ORCA ESD FINISHED WITHOUT ERROR****

Timings for individual modules:

Sum of individual times         ...      496.631 sec (=   8.277 min)
GTO integral calculation        ...        0.514 sec (=   0.009 min)   0.1 %
SCF iterations                  ...       77.558 sec (=   1.293 min)  15.6 %
CIS module                      ...      406.589 sec (=   6.776 min)  81.9 %
ESD module                      ...       11.970 sec (=   0.200 min)   2.4 %



                             ****ORCA TERMINATED NORMALLY****
TOTAL RUN TIME: 0 days 0 hours 27 minutes 24 seconds 493 msec
