
                                 *****************
                                 * O   R   C   A *
                                 *****************

                                            #,                                       
                                            ###                                      
                                            ####                                     
                                            #####                                    
                                            ######                                   
                                           ########,                                 
                                     ,,################,,,,,                         
                               ,,#################################,,                 
                          ,,##########################################,,             
                       ,#########################################, ''#####,          
                    ,#############################################,,   '####,        
                  ,##################################################,,,,####,       
                ,###########''''           ''''###############################       
              ,#####''   ,,,,##########,,,,          '''####'''          '####       
            ,##' ,,,,###########################,,,                        '##       
           ' ,,###''''                  '''############,,,                           
         ,,##''                                '''############,,,,        ,,,,,,###''
      ,#''                                            '''#######################'''  
     '                                                          ''''####''''         
             ,#######,   #######,   ,#######,      ##                                
            ,#'     '#,  ##    ##  ,#'     '#,    #''#        ######   ,####,        
            ##       ##  ##   ,#'  ##            #'  '#       #        #'  '#        
            ##       ##  #######   ##           ,######,      #####,   #    #        
            '#,     ,#'  ##    ##  '#,     ,#' ,#      #,         ##   #,  ,#        
             '#######'   ##     ##  '#######'  #'      '#     #####' # '####'        



                  #######################################################
                  #                        -***-                        #
                  #          Department of theory and spectroscopy      #
                  #    Directorship and core code : Frank Neese         #
                  #        Max Planck Institute fuer Kohlenforschung    #
                  #                Kaiser Wilhelm Platz 1               #
                  #                 D-45470 Muelheim/Ruhr               #
                  #                      Germany                        #
                  #                                                     #
                  #                  All rights reserved                #
                  #                        -***-                        #
                  #######################################################


                         Program Version 5.0.3 -  RELEASE  -


 With contributions from (in alphabetic order):
   Daniel Aravena         : Magnetic Suceptibility
   Michael Atanasov       : Ab Initio Ligand Field Theory (pilot matlab implementation)
   Alexander A. Auer      : GIAO ZORA, VPT2 properties, NMR spectrum
   Ute Becker             : Parallelization
   Giovanni Bistoni       : ED, misc. LED, open-shell LED, HFLD
   Martin Brehm           : Molecular dynamics
   Dmytro Bykov           : SCF Hessian
   Vijay G. Chilkuri      : MRCI spin determinant printing, contributions to CSF-ICE
   Dipayan Datta          : RHF DLPNO-CCSD density
   Achintya Kumar Dutta   : EOM-CC, STEOM-CC
   Dmitry Ganyushin       : Spin-Orbit,Spin-Spin,Magnetic field MRCI
   Miquel Garcia          : C-PCM and meta-GGA Hessian, CC/C-PCM, Gaussian charge scheme
   Yang Guo               : DLPNO-NEVPT2, F12-NEVPT2, CIM, IAO-localization
   Andreas Hansen         : Spin unrestricted coupled pair/coupled cluster methods
   Benjamin Helmich-Paris : MC-RPA, TRAH-SCF, COSX integrals
   Lee Huntington         : MR-EOM, pCC
   Robert Izsak           : Overlap fitted RIJCOSX, COSX-SCS-MP3, EOM
   Marcus Kettner         : VPT2
   Christian Kollmar      : KDIIS, OOCD, Brueckner-CCSD(T), CCSD density, CASPT2, CASPT2-K
   Simone Kossmann        : Meta GGA functionals, TD-DFT gradient, OOMP2, MP2 Hessian
   Martin Krupicka        : Initial AUTO-CI
   Lucas Lang             : DCDCAS
   Marvin Lechner         : AUTO-CI (C++ implementation), FIC-MRCC
   Dagmar Lenk            : GEPOL surface, SMD
   Dimitrios Liakos       : Extrapolation schemes; Compound Job, initial MDCI parallelization
   Dimitrios Manganas     : Further ROCIS development; embedding schemes
   Dimitrios Pantazis     : SARC Basis sets
   Anastasios Papadopoulos: AUTO-CI, single reference methods and gradients
   Taras Petrenko         : DFT Hessian,TD-DFT gradient, ASA, ECA, R-Raman, ABS, FL, XAS/XES, NRVS
   Peter Pinski           : DLPNO-MP2, DLPNO-MP2 Gradient
   Christoph Reimann      : Effective Core Potentials
   Marius Retegan         : Local ZFS, SOC
   Christoph Riplinger    : Optimizer, TS searches, QM/MM, DLPNO-CCSD(T), (RO)-DLPNO pert. Triples
   Tobias Risthaus        : Range-separated hybrids, TD-DFT gradient, RPA, STAB
   Michael Roemelt        : Original ROCIS implementation
   Masaaki Saitow         : Open-shell DLPNO-CCSD energy and density
   Barbara Sandhoefer     : DKH picture change effects
   Avijit Sen             : IP-ROCIS
   Kantharuban Sivalingam : CASSCF convergence, NEVPT2, FIC-MRCI
   Bernardo de Souza      : ESD, SOC TD-DFT
   Georgi Stoychev        : AutoAux, RI-MP2 NMR, DLPNO-MP2 response
   Willem Van den Heuvel  : Paramagnetic NMR
   Boris Wezisla          : Elementary symmetry handling
   Frank Wennmohs         : Technical directorship


 We gratefully acknowledge several colleagues who have allowed us to
 interface, adapt or use parts of their codes:
   Stefan Grimme, W. Hujo, H. Kruse, P. Pracht,  : VdW corrections, initial TS optimization,
                  C. Bannwarth, S. Ehlert          DFT functionals, gCP, sTDA/sTD-DF
   Ed Valeev, F. Pavosevic, A. Kumar             : LibInt (2-el integral package), F12 methods
   Garnet Chan, S. Sharma, J. Yang, R. Olivares  : DMRG
   Ulf Ekstrom                                   : XCFun DFT Library
   Mihaly Kallay                                 : mrcc  (arbitrary order and MRCC methods)
   Jiri Pittner, Ondrej Demel                    : Mk-CCSD
   Frank Weinhold                                : gennbo (NPA and NBO analysis)
   Christopher J. Cramer and Donald G. Truhlar   : smd solvation model
   Lars Goerigk                                  : TD-DFT with DH, B97 family of functionals
   V. Asgeirsson, H. Jonsson                     : NEB implementation
   FAccTs GmbH                                   : IRC, NEB, NEB-TS, DLPNO-Multilevel, CI-OPT
                                                   MM, QMMM, 2- and 3-layer-ONIOM, Crystal-QMMM,
                                                   LR-CPCM, SF, NACMEs, symmetry and pop. for TD-DFT,
                                                   nearIR, NL-DFT gradient (VV10), updates on ESD,
                                                   ML-optimized integration grids
   S Lehtola, MJT Oliveira, MAL Marques          : LibXC Library
   Liviu Ungur et al                             : ANISO software


 Your calculation uses the libint2 library for the computation of 2-el integrals
 For citations please refer to: http://libint.valeyev.net

 Your ORCA version has been built with support for libXC version: 5.1.0
 For citations please refer to: https://tddft.org/programs/libxc/

 This ORCA versions uses:
   CBLAS   interface :  Fast vector & matrix operations
   LAPACKE interface :  Fast linear algebra routines
   SCALAPACK package :  Parallel linear algebra routines
   Shared memory     :  Shared parallel matrices
   BLAS/LAPACK       :  OpenBLAS 0.3.15  USE64BITINT DYNAMIC_ARCH NO_AFFINITY Haswell SINGLE_THREADED
        Core in use  :  Haswell
   Copyright (c) 2011-2014, The OpenBLAS Project


================================================================================

----- Orbital basis set information -----
Your calculation utilizes the basis: def2-SVP
   F. Weigend and R. Ahlrichs, Phys. Chem. Chem. Phys. 7, 3297 (2005).

----- AuxJ basis set information -----
Your calculation utilizes the auxiliary basis: def2/J
   F. Weigend, Phys. Chem. Chem. Phys. 8, 1057 (2006).

----- AuxC basis set information -----
Your calculation utilizes the auxiliary basis: def2-SVP/C
  H-La, Hf-Rn : A. Hellweg, C. Hattig, S. Hofener and W. Klopper, Theor. Chem. Acc. 117, 587 (2007).
        Ce-Lu : J. Chmela and M. E. Harding, Mol. Phys. (2018).

================================================================================
                                        WARNINGS
                       Please study these warnings very carefully!
================================================================================

WARNING: STEOM with SOC not compatible with new densities yet
  ===> : Will switch back to SimpleDens!

WARNING: Post HF methods need fully converged wavefunctions
  ===> : Setting SCFConvForced true
         You can overwrite this default with %scf ConvForced false 


WARNING: MDCI localization with Augmented Hessian Foster-Boys
  ===> : Switching off randomization!

INFO   : the flag for use of the SHARK integral package has been found!

================================================================================

----- Orbital basis set information -----
Your calculation utilizes the basis: def2-SVP
   F. Weigend and R. Ahlrichs, Phys. Chem. Chem. Phys. 7, 3297 (2005).

----- AuxJ basis set information -----
Your calculation utilizes the auxiliary basis: def2/J
   F. Weigend, Phys. Chem. Chem. Phys. 8, 1057 (2006).

----- AuxC basis set information -----
Your calculation utilizes the auxiliary basis: def2-SVP/C
  H-La, Hf-Rn : A. Hellweg, C. Hattig, S. Hofener and W. Klopper, Theor. Chem. Acc. 117, 587 (2007).
        Ce-Lu : J. Chmela and M. E. Harding, Mol. Phys. (2018).

================================================================================
                                        WARNINGS
                       Please study these warnings very carefully!
================================================================================

WARNING: STEOM with SOC not compatible with new densities yet
  ===> : Will switch back to SimpleDens!

WARNING: MDCI localization with Augmented Hessian Foster-Boys
  ===> : Switching off randomization!

INFO   : the flag for use of the SHARK integral package has been found!

================================================================================

----- Orbital basis set information -----
Your calculation utilizes the basis: def2-SVP
   F. Weigend and R. Ahlrichs, Phys. Chem. Chem. Phys. 7, 3297 (2005).

----- AuxJ basis set information -----
Your calculation utilizes the auxiliary basis: def2/J
   F. Weigend, Phys. Chem. Chem. Phys. 8, 1057 (2006).

----- AuxC basis set information -----
Your calculation utilizes the auxiliary basis: def2-SVP/C
  H-La, Hf-Rn : A. Hellweg, C. Hattig, S. Hofener and W. Klopper, Theor. Chem. Acc. 117, 587 (2007).
        Ce-Lu : J. Chmela and M. E. Harding, Mol. Phys. (2018).

================================================================================
                                        WARNINGS
                       Please study these warnings very carefully!
================================================================================

WARNING: STEOM with SOC not compatible with new densities yet
  ===> : Will switch back to SimpleDens!

WARNING: MDCI localization with Augmented Hessian Foster-Boys
  ===> : Switching off randomization!

INFO   : the flag for use of the SHARK integral package has been found!

================================================================================
                                       INPUT FILE
================================================================================
NAME = /scratch/dca0099.334549/Phos_naphtalene.inp
|  1> !STEOM-DLPNO-CCSD DEF2-SVP DEF2-SVP/C def2/J RIJCOSX TIGHTSCF CPCM(toluene) RI-SOMF(1X) ESD(PHOSP)
|  2> 
|  3> %maxcore  120000
|  4> 
|  5> %mdci
|  6> 	NRoots 6 #no of roots
|  7> 	IROOT 1
|  8> 	DOSOC TRUE
|  9> 	DOSOLV  TRUE
| 10> end
| 11> 
| 12> %ESD 
| 13> 	GSHESSIAN "Phos_naphtalene.GS.hess"
| 14> 	TSHESSIAN "Phos_naphtalene.TS.hess"
| 15> 	DOHT TRUE
| 16> 	DELE 22650.19
| 17> END
| 18> 
| 19> * xyz 0 1
| 20>   C   -8.96121784812031      0.24268337776474      0.00033489819780
| 21>   C   -7.59059951968750      0.24371545417717      0.00015198745293
| 22>   C   -6.86693343298993      1.46030211281662      0.00023475747764
| 23>   C   -7.58799559947894      2.69205204792658      0.00050997612007
| 24>   C   -9.00310055342497      2.65617792309838      0.00069280404132
| 25>   C   -9.67467975506609      1.46137108557408      0.00060814266859
| 26>   H   -4.90710891896316      0.55933209328366     -0.00016767341217
| 27>   H   -9.50425962457938     -0.69409088109167      0.00026687164944
| 28>   H   -7.04027568972576     -0.68980140749936     -0.00005544925225
| 29>   C   -5.45183741157070      1.49616229462644      0.00005614405431
| 30>   C   -6.86437066397562      3.90865807672096      0.00059715121121
| 31>   H   -9.54784882567221      3.59299899012176      0.00091076313657
| 32>   H   -10.75737868171900      1.44626581403603      0.00074783188745
| 33>   C   -5.49375285629476      3.90967522182525      0.00042517705822
| 34>   C   -4.78028626336214      2.69100004727155      0.00015218718405
| 35>   H   -7.41470937199301      4.84216327382740      0.00079951152285
| 36>   H   -4.95071130646203      4.84645090655905      0.00050815101568
| 37>   H   -3.69758703691443      2.70613312896136      0.00001676798628
| 38> *
| 39> 
| 40> $NEW_JOB
| 41> 
| 42> !STEOM-DLPNO-CCSD DEF2-SVP DEF2-SVP/C def2/J RIJCOSX TIGHTSCF CPCM(toluene) RI-SOMF(1X) ESD(PHOSP)
| 43> 
| 44> %maxcore  120000
| 45> 
| 46> %mdci
| 47> 	NRoots 6 #no of roots
| 48> 	IROOT 2
| 49> 	DOSOC TRUE
| 50> 	DOSOLV  TRUE
| 51> end
| 52> 
| 53> %ESD 
| 54> 	GSHESSIAN "Phos_naphtalene.GS.hess"
| 55> 	TSHESSIAN "Phos_naphtalene.TS.hess"
| 56> 	DOHT TRUE
| 57> 	DELE 22650.19
| 58> END
| 59> 
| 60> * xyz 0 1
| 61>   C   -8.96121784812031      0.24268337776474      0.00033489819780
| 62>   C   -7.59059951968750      0.24371545417717      0.00015198745293
| 63>   C   -6.86693343298993      1.46030211281662      0.00023475747764
| 64>   C   -7.58799559947894      2.69205204792658      0.00050997612007
| 65>   C   -9.00310055342497      2.65617792309838      0.00069280404132
| 66>   C   -9.67467975506609      1.46137108557408      0.00060814266859
| 67>   H   -4.90710891896316      0.55933209328366     -0.00016767341217
| 68>   H   -9.50425962457938     -0.69409088109167      0.00026687164944
| 69>   H   -7.04027568972576     -0.68980140749936     -0.00005544925225
| 70>   C   -5.45183741157070      1.49616229462644      0.00005614405431
| 71>   C   -6.86437066397562      3.90865807672096      0.00059715121121
| 72>   H   -9.54784882567221      3.59299899012176      0.00091076313657
| 73>   H   -10.75737868171900      1.44626581403603      0.00074783188745
| 74>   C   -5.49375285629476      3.90967522182525      0.00042517705822
| 75>   C   -4.78028626336214      2.69100004727155      0.00015218718405
| 76>   H   -7.41470937199301      4.84216327382740      0.00079951152285
| 77>   H   -4.95071130646203      4.84645090655905      0.00050815101568
| 78>   H   -3.69758703691443      2.70613312896136      0.00001676798628
| 79> *
| 80> 
| 81> $NEW_JOB
| 82> 
| 83> !STEOM-DLPNO-CCSD DEF2-SVP DEF2-SVP/C def2/J RIJCOSX TIGHTSCF CPCM(toluene) RI-SOMF(1X) ESD(PHOSP)
| 84> 
| 85> %maxcore  120000
| 86> 
| 87> %mdci
| 88> 	NRoots 6 #no of roots
| 89> 	IROOT 3
| 90> 	DOSOC TRUE
| 91> 	DOSOLV  TRUE
| 92> end
| 93> 
| 94> %ESD 
| 95> 	GSHESSIAN "Phos_naphtalene.GS.hess"
| 96> 	TSHESSIAN "Phos_naphtalene.TS.hess"
| 97> 	DOHT TRUE
| 98> 	DELE 22650.19
| 99> END
|100> 
|101> * xyz 0 1
|102>   C   -8.96121784812031      0.24268337776474      0.00033489819780
|103>   C   -7.59059951968750      0.24371545417717      0.00015198745293
|104>   C   -6.86693343298993      1.46030211281662      0.00023475747764
|105>   C   -7.58799559947894      2.69205204792658      0.00050997612007
|106>   C   -9.00310055342497      2.65617792309838      0.00069280404132
|107>   C   -9.67467975506609      1.46137108557408      0.00060814266859
|108>   H   -4.90710891896316      0.55933209328366     -0.00016767341217
|109>   H   -9.50425962457938     -0.69409088109167      0.00026687164944
|110>   H   -7.04027568972576     -0.68980140749936     -0.00005544925225
|111>   C   -5.45183741157070      1.49616229462644      0.00005614405431
|112>   C   -6.86437066397562      3.90865807672096      0.00059715121121
|113>   H   -9.54784882567221      3.59299899012176      0.00091076313657
|114>   H   -10.75737868171900      1.44626581403603      0.00074783188745
|115>   C   -5.49375285629476      3.90967522182525      0.00042517705822
|116>   C   -4.78028626336214      2.69100004727155      0.00015218718405
|117>   H   -7.41470937199301      4.84216327382740      0.00079951152285
|118>   H   -4.95071130646203      4.84645090655905      0.00050815101568
|119>   H   -3.69758703691443      2.70613312896136      0.00001676798628
|120> *
|121> 
|122> 
|123> 
|124> 
|125> 
|126>                          ****END OF INPUT****
================================================================================


                 $$$$$$$$$$$$$$$$$$$$$$$$$$$$$$$$$$$$$$$$$$$$$$ 
                 $ THERE ARE  3 JOBS TO BE PROCESSED THIS RUN $
                 $$$$$$$$$$$$$$$$$$$$$$$$$$$$$$$$$$$$$$$$$$$$$$ 




                 $$$$$$$$$$$$$$$$  JOB NUMBER  1 $$$$$$$$$$$$$$


                       ****************************
                       * Single Point Calculation *
                       ****************************

The geometry is being displaced to its center of mass!
---------------------------------
CARTESIAN COORDINATES (ANGSTROEM)
---------------------------------
  C     -1.733740   -1.833496   -0.000042
  C     -0.363122   -1.832464   -0.000224
  C      0.360544   -0.615878   -0.000142
  C     -0.360518    0.615872    0.000134
  C     -1.775623    0.579998    0.000316
  C     -2.447202   -0.614809    0.000232
  H      2.320369   -1.516848   -0.000544
  H     -2.276782   -2.770271   -0.000110
  H      0.187202   -2.765981   -0.000432
  C      1.775640   -0.580018   -0.000320
  C      0.363107    1.832478    0.000221
  H     -2.320371    1.516819    0.000534
  H     -3.529901   -0.629914    0.000371
  C      1.733725    1.833495    0.000049
  C      2.447192    0.614820   -0.000224
  H     -0.187232    2.765983    0.000423
  H      2.276767    2.770271    0.000132
  H      3.529891    0.629953   -0.000360

----------------------------
CARTESIAN COORDINATES (A.U.)
----------------------------
  NO LB      ZA    FRAG     MASS         X           Y           Z
   0 C     6.0000    0    12.011   -3.276294   -3.464806   -0.000079
   1 C     6.0000    0    12.011   -0.686200   -3.462856   -0.000424
   2 C     6.0000    0    12.011    0.681330   -1.163840   -0.000268
   3 C     6.0000    0    12.011   -0.681280    1.163830    0.000252
   4 C     6.0000    0    12.011   -3.355441    1.096037    0.000598
   5 C     6.0000    0    12.011   -4.624541   -1.161820    0.000438
   6 H     1.0000    0     1.008    4.384862   -2.866427   -0.001028
   7 H     1.0000    0     1.008   -4.302494   -5.235053   -0.000207
   8 H     1.0000    0     1.008    0.353761   -5.226947   -0.000816
   9 C     6.0000    0    12.011    3.355474   -1.096074   -0.000605
  10 C     6.0000    0    12.011    0.686173    3.462882    0.000417
  11 H     1.0000    0     1.008   -4.384866    2.866373    0.001010
  12 H     1.0000    0     1.008   -6.670546   -1.190365    0.000702
  13 C     6.0000    0    12.011    3.276265    3.464804    0.000092
  14 C     6.0000    0    12.011    4.624522    1.161842   -0.000424
  15 H     1.0000    0     1.008   -0.353816    5.226951    0.000799
  16 H     1.0000    0     1.008    4.302465    5.235054    0.000249
  17 H     1.0000    0     1.008    6.670527    1.190439   -0.000680

--------------------------------
INTERNAL COORDINATES (ANGSTROEM)
--------------------------------
 C      0   0   0     0.000000000000     0.00000000     0.00000000
 C      1   0   0     1.370618729215     0.00000000     0.00000000
 C      2   1   0     1.415547847961   120.78872804     0.00000000
 C      3   2   1     1.427283653073   118.90985599     0.00000000
 C      4   3   2     1.415559612641   118.89237357     0.00000000
 C      5   4   3     1.370613734879   120.79173451     0.00000000
 H      3   2   1     2.157002379189    96.05640884   180.00020823
 H      1   2   3     1.082792864616   120.14372570   179.99985320
 H      2   1   3     1.083655891826   120.47691903   179.99977039
 C      7   3   2     1.083688150208    35.13457172   180.00086861
 C      4   3   2     1.415543458952   118.91168837   179.99979670
 H      5   4   3     1.083690195232   118.72521347   179.99944983
 H      6   5   4     1.082804301117   120.13885846   180.00012170
 C     11   4   3     1.370618195885   120.78627157     0.00000000
 C     10   7   3     1.370626940137   120.48585441   180.00054876
 H     11   4   3     1.083653398240   118.73519446   179.99959498
 H     14  11   4     1.082793985594   120.14305325   180.00086116
 H     15  10   7     1.082804988652   120.13867409     0.00000000

---------------------------
INTERNAL COORDINATES (A.U.)
---------------------------
 C      0   0   0     0.000000000000     0.00000000     0.00000000
 C      1   0   0     2.590094032239     0.00000000     0.00000000
 C      2   1   0     2.674997762108   120.78872804     0.00000000
 C      3   2   1     2.697175219731   118.90985599     0.00000000
 C      4   3   2     2.675019994131   118.89237357     0.00000000
 C      5   4   3     2.590084594312   120.79173451     0.00000000
 H      3   2   1     4.076143766884    96.05640884   180.00020823
 H      1   2   3     2.046181973888   120.14372570   179.99985320
 H      2   1   3     2.047812858960   120.47691903   179.99977039
 C      7   3   2     2.047873818468    35.13457172   180.00086861
 C      4   3   2     2.674989468082   118.91168837   179.99979670
 H      5   4   3     2.047877683004   118.72521347   179.99944983
 H      6   5   4     2.046203585742   120.13885846   180.00012170
 C     11   4   3     2.590093024392   120.78627157     0.00000000
 C     10   7   3     2.590109548634   120.48585441   180.00054876
 H     11   4   3     2.047808146766   118.73519446   179.99959498
 H     14  11   4     2.046184092229   120.14305325   180.00086116
 H     15  10   7     2.046204884997   120.13867409     0.00000000

---------------------
BASIS SET INFORMATION
---------------------
There are 2 groups of distinct atoms

 Group   1 Type C   : 7s4p1d contracted to 3s2p1d pattern {511/31/1}
 Group   2 Type H   : 4s1p contracted to 2s1p pattern {31/1}

Atom   0C    basis set group =>   1
Atom   1C    basis set group =>   1
Atom   2C    basis set group =>   1
Atom   3C    basis set group =>   1
Atom   4C    basis set group =>   1
Atom   5C    basis set group =>   1
Atom   6H    basis set group =>   2
Atom   7H    basis set group =>   2
Atom   8H    basis set group =>   2
Atom   9C    basis set group =>   1
Atom  10C    basis set group =>   1
Atom  11H    basis set group =>   2
Atom  12H    basis set group =>   2
Atom  13C    basis set group =>   1
Atom  14C    basis set group =>   1
Atom  15H    basis set group =>   2
Atom  16H    basis set group =>   2
Atom  17H    basis set group =>   2
---------------------------------
AUXILIARY/J BASIS SET INFORMATION
---------------------------------
There are 2 groups of distinct atoms

 Group   1 Type C   : 12s5p4d2f1g contracted to 6s4p3d1f1g pattern {711111/2111/211/2/1}
 Group   2 Type H   : 5s2p1d contracted to 3s1p1d pattern {311/2/1}

Atom   0C    basis set group =>   1
Atom   1C    basis set group =>   1
Atom   2C    basis set group =>   1
Atom   3C    basis set group =>   1
Atom   4C    basis set group =>   1
Atom   5C    basis set group =>   1
Atom   6H    basis set group =>   2
Atom   7H    basis set group =>   2
Atom   8H    basis set group =>   2
Atom   9C    basis set group =>   1
Atom  10C    basis set group =>   1
Atom  11H    basis set group =>   2
Atom  12H    basis set group =>   2
Atom  13C    basis set group =>   1
Atom  14C    basis set group =>   1
Atom  15H    basis set group =>   2
Atom  16H    basis set group =>   2
Atom  17H    basis set group =>   2
---------------------------------
AUXILIARY/C BASIS SET INFORMATION
---------------------------------
There are 2 groups of distinct atoms

 Group   1 Type C   : 8s6p5d3f contracted to 6s5p4d1f pattern {311111/21111/2111/3}
 Group   2 Type H   : 4s3p2d contracted to 3s2p1d pattern {211/21/2}

Atom   0C    basis set group =>   1
Atom   1C    basis set group =>   1
Atom   2C    basis set group =>   1
Atom   3C    basis set group =>   1
Atom   4C    basis set group =>   1
Atom   5C    basis set group =>   1
Atom   6H    basis set group =>   2
Atom   7H    basis set group =>   2
Atom   8H    basis set group =>   2
Atom   9C    basis set group =>   1
Atom  10C    basis set group =>   1
Atom  11H    basis set group =>   2
Atom  12H    basis set group =>   2
Atom  13C    basis set group =>   1
Atom  14C    basis set group =>   1
Atom  15H    basis set group =>   2
Atom  16H    basis set group =>   2
Atom  17H    basis set group =>   2
------------------------------------------------------------------------------
                           ORCA GTO INTEGRAL CALCULATION
                           -- RI-GTO INTEGRALS CHOSEN --
------------------------------------------------------------------------------
------------------------------------------------------------------------------
                   ___                                                        
                  /   \      - P O W E R E D   B Y -                         
                 /     \                                                     
                 |  |  |   _    _      __       _____    __    __             
                 |  |  |  | |  | |    /  \     |  _  \  |  |  /  |          
                  \  \/   | |  | |   /    \    | | | |  |  | /  /          
                 / \  \   | |__| |  /  /\  \   | |_| |  |  |/  /          
                |  |  |   |  __  | /  /__\  \  |    /   |      \           
                |  |  |   | |  | | |   __   |  |    \   |  |\   \          
                \     /   | |  | | |  |  |  |  | |\  \  |  | \   \       
                 \___/    |_|  |_| |__|  |__|  |_| \__\ |__|  \__/        
                                                                              
                      - O R C A' S   B I G   F R I E N D -                    
                                      &                                       
                       - I N T E G R A L  F E E D E R -                       
                                                                              
 v1 FN, 2020, v2 2021                                                         
------------------------------------------------------------------------------


Reading SHARK input file /scratch/dca0099.334549/Phos_naphtalene.SHARKINP.tmp ... ok
----------------------
SHARK INTEGRAL PACKAGE
----------------------

Number of atoms                             ...     18
Number of basis functions                   ...    180
Number of shells                            ...     84
Maximum angular momentum                    ...      2
Integral batch strategy                     ... SHARK/LIBINT Hybrid
RI-J (if used) integral strategy            ... SPLIT-RIJ (Revised 2003 algorithm where possible)
Printlevel                                  ...      1
Contraction scheme used                     ... SEGMENTED contraction
Coulomb Range Separation                    ... NOT USED
Exchange Range Separation                   ... NOT USED
Finite Nucleus Model                        ... NOT USED
Auxiliary Coulomb fitting basis             ... AVAILABLE
   # of basis functions in Aux-J            ...    578
   # of shells in Aux-J                     ...    190
   Maximum angular momentum in Aux-J        ...      4
Auxiliary J/K fitting basis                 ... NOT available
Auxiliary Correlation fitting basis         ... AVAILABLE
   # of basis functions in Aux-C            ...    592
   # of shells in Aux-C                     ...    208
   Maximum angular momentum in Aux-C        ...      3
Auxiliary 'external' fitting basis          ... NOT available
Integral threshold                          ...     2.500000e-11
Primitive cut-off                           ...     2.500000e-12
Primitive pair pre-selection threshold      ...     2.500000e-12

Calculating pre-screening integrals         ... done (  0.1 sec) Dimension = 84
Organizing shell pair data                  ... done (  0.0 sec)
Shell pair information
Total number of shell pairs                 ...      3570
Shell pairs after pre-screening             ...      3320
Total number of primitive shell pairs       ...     13034
Primitive shell pairs kept                  ...      8781
          la=0 lb=0:   1003 shell pairs
          la=1 lb=0:   1200 shell pairs
          la=1 lb=1:    378 shell pairs
          la=2 lb=0:    424 shell pairs
          la=2 lb=1:    264 shell pairs
          la=2 lb=2:     51 shell pairs

Calculating one electron integrals          ... done (  0.0 sec)
Calculating RI/J V-Matrix + Cholesky decomp.... done (  0.0 sec)
Calculating RI/C V-Matrix + Cholesky decomp.... done (  0.0 sec)
Calculating Nuclear repulsion               ... done (  0.0 sec) ENN=    459.060186556575 Eh

SHARK setup successfully completed in   0.5 seconds

Maximum memory used throughout the entire GTOINT-calculation: 27.0 MB
-------------------------------------------------------------------------------
                                 ORCA SCF
-------------------------------------------------------------------------------

------------
SCF SETTINGS
------------
Hamiltonian:
 Ab initio Hamiltonian  Method          .... Hartree-Fock(GTOs)
 RI-approximation to the Coulomb term is turned on
   Number of AuxJ basis functions       .... 578
   RIJ-COSX (HFX calculated with COS-X)).... on


General Settings:
 Integral files         IntName         .... /scratch/dca0099.334549/Phos_naphtalene
 Hartree-Fock type      HFTyp           .... RHF
 Total Charge           Charge          ....    0
 Multiplicity           Mult            ....    1
 Number of Electrons    NEL             ....   68
 Basis Dimension        Dim             ....  180
 Nuclear Repulsion      ENuc            ....    459.0601865566 Eh

Convergence Acceleration:
 DIIS                   CNVDIIS         .... on
   Start iteration      DIISMaxIt       ....    12
   Startup error        DIISStart       ....  0.200000
   # of expansion vecs  DIISMaxEq       ....     5
   Bias factor          DIISBfac        ....   1.050
   Max. coefficient     DIISMaxC        ....  10.000
 Trust-Rad. Augm. Hess. CNVTRAH         .... auto
   Auto Start mean grad. ratio tolernc. ....  1.125000
   Auto Start start iteration           ....    20
   Auto Start num. interpolation iter.  ....    10
   Max. Number of Micro iterations      ....    16
   Max. Number of Macro iterations      .... Maxiter - #DIIS iter
   Number of Davidson start vectors     ....     2
   Converg. threshold I  (grad. norm)   ....   1.000e-05
   Converg. threshold II (energy diff.) ....   1.000e-08
   Grad. Scal. Fac. for Micro threshold ....   0.100
   Minimum threshold for Micro iter.    ....   0.010
   NR start threshold (gradient norm)   ....   0.001
   Initial trust radius                 ....   0.400
   Minimum AH scaling param. (alpha)    ....   1.000
   Maximum AH scaling param. (alpha)    .... 1000.000
   Orbital update algorithm             .... Taylor
   White noise on init. David. guess    .... on
   Maximum white noise                  ....   0.010
   Quad. conv. algorithm                .... NR
 SOSCF                  CNVSOSCF        .... on
   Start iteration      SOSCFMaxIt      ....   150
   Startup grad/error   SOSCFStart      ....  0.003300
 Level Shifting         CNVShift        .... on
   Level shift para.    LevelShift      ....    0.2500
   Turn off err/grad.   ShiftErr        ....    0.0010
 Zerner damping         CNVZerner       .... off
 Static damping         CNVDamp         .... on
   Fraction old density DampFac         ....    0.7000
   Max. Damping (<1)    DampMax         ....    0.9800
   Min. Damping (>=0)   DampMin         ....    0.0000
   Turn off err/grad.   DampErr         ....    0.1000
 Fernandez-Rico         CNVRico         .... off

SCF Procedure:
 Maximum # iterations   MaxIter         ....   125
 SCF integral mode      SCFMode         .... Direct
   Integral package                     .... SHARK and LIBINT hybrid scheme
 Reset frequency        DirectResetFreq ....    20
 Integral Threshold     Thresh          ....  2.500e-11 Eh
 Primitive CutOff       TCut            ....  2.500e-12 Eh

Convergence Tolerance:
 Convergence Check Mode ConvCheckMode   .... Total+1el-Energy
 Convergence forced     ConvForced      .... 1
 Energy Change          TolE            ....  1.000e-08 Eh
 1-El. energy change                    ....  1.000e-05 Eh
 Orbital Gradient       TolG            ....  1.000e-05
 Orbital Rotation angle TolX            ....  1.000e-05
 DIIS Error             TolErr          ....  5.000e-07


Diagonalization of the overlap matrix:
Smallest eigenvalue                        ... 2.653e-04
Time for diagonalization                   ...    0.011 sec
Threshold for overlap eigenvalues          ... 1.000e-08
Number of eigenvalues below threshold      ... 0
Time for construction of square roots      ...    0.003 sec
Total time needed                          ...    0.014 sec

Time for model grid setup =    0.532 sec

------------------------------
INITIAL GUESS: MODEL POTENTIAL
------------------------------
Loading Hartree-Fock densities                     ... done
Calculating cut-offs                               ... done
Initializing the effective Hamiltonian             ... done
Setting up the integral package (SHARK)            ... done
Starting the Coulomb interaction                   ... done (   0.3 sec)
Reading the grid                                   ... done
Mapping shells                                     ... done
Starting the XC term evaluation                    ... done (   0.2 sec)
Transforming the Hamiltonian                       ... done (   0.0 sec)
Diagonalizing the Hamiltonian                      ... done (   0.0 sec)
Back transforming the eigenvectors                 ... done (   0.0 sec)
Now organizing SCF variables                       ... done
                      ------------------
                      INITIAL GUESS DONE (   1.1 sec)
                      ------------------
--------------------
COSX GRID GENERATION
--------------------

GRIDX 1
-------
General Integration Accuracy     IntAcc      ... 3.816
Radial Grid Type                 RadialGrid  ... OptM3 with GC (2021)
Angular Grid (max. ang.)         AngularGrid ... 1 (Lebedev-50)
Angular grid pruning method      GridPruning ... 4 (adaptive)
Weight generation scheme         WeightScheme... Becke
Basis function cutoff            BFCut       ... 1.0000e-11
Integration weight cutoff        WCut        ... 1.0000e-14
Angular grids for H and He will be reduced by one unit
Partially contracted basis set               ... on
Rotationally invariant grid construction     ... off

Total number of grid points                  ...    10956
Total number of batches                      ...      176
Average number of points per batch           ...       62
Average number of grid points per atom       ...      609
UseSFitting                                  ... on

GRIDX 2
-------
General Integration Accuracy     IntAcc      ... 4.020
Radial Grid Type                 RadialGrid  ... OptM3 with GC (2021)
Angular Grid (max. ang.)         AngularGrid ... 2 (Lebedev-110)
Angular grid pruning method      GridPruning ... 4 (adaptive)
Weight generation scheme         WeightScheme... Becke
Basis function cutoff            BFCut       ... 1.0000e-11
Integration weight cutoff        WCut        ... 1.0000e-14
Angular grids for H and He will be reduced by one unit
Partially contracted basis set               ... on
Rotationally invariant grid construction     ... off

Total number of grid points                  ...    23850
Total number of batches                      ...      384
Average number of points per batch           ...       62
Average number of grid points per atom       ...     1325
UseSFitting                                  ... on

GRIDX 3
-------
General Integration Accuracy     IntAcc      ... 4.338
Radial Grid Type                 RadialGrid  ... OptM3 with GC (2021)
Angular Grid (max. ang.)         AngularGrid ... 3 (Lebedev-194)
Angular grid pruning method      GridPruning ... 4 (adaptive)
Weight generation scheme         WeightScheme... Becke
Basis function cutoff            BFCut       ... 1.0000e-11
Integration weight cutoff        WCut        ... 1.0000e-14
Angular grids for H and He will be reduced by one unit
Partially contracted basis set               ... on
Rotationally invariant grid construction     ... off

Total number of grid points                  ...    52490
Total number of batches                      ...      830
Average number of points per batch           ...       63
Average number of grid points per atom       ...     2916
UseSFitting                                  ... on

Time for X-Grid setup             =    1.474 sec


--------------------
CPCM SOLVATION MODEL
--------------------
CPCM parameters:
  Epsilon                                         ...       2.4000
  Refrac                                          ...       1.4970
  Rsolv                                           ...       1.3000
  Surface type                                    ... GAUSSIAN VDW
  Epsilon function type                           ...         CPCM
Radii:
 Radius for C  used is    3.8550 Bohr (=   2.0400 Ang.)
 Radius for H  used is    2.4944 Bohr (=   1.3200 Ang.)
Calculating surface                               ...        done! (  0.0s)
GEPOL surface points                              ...          996
GEPOL Volume                                      ...    1144.6715
GEPOL Surface-area                                ...     615.5680
Calculating surface distance matrix               ...        done! (  0.0s)
Performing Cholesky decomposition & store         ...        done! (  0.0s)
Overall time for CPCM initialization              ...                 0.0s
--------------
SCF ITERATIONS
--------------
ITER       Energy         Delta-E        Max-DP      RMS-DP      [F,P]     Damp
               ***  Starting incremental Fock matrix formation  ***
  0   -382.7618984274   0.000000000000 0.08222090  0.00348136  0.1473811 0.7000
  1   -382.8661301105  -0.104231683036 0.06522789  0.00275283  0.0997428 0.7000
                               ***Turning on DIIS***
  2   -382.9337228946  -0.067592784178 0.15887824  0.00657374  0.0636956 0.0000
  3   -382.5613513924   0.372371502249 0.01737945  0.00081506  0.0211650 0.0000
  4   -383.0569819142  -0.495630521795 0.00559117  0.00035699  0.0041836 0.0000
                      *** Initiating the SOSCF procedure ***
                           *** Shutting down DIIS ***
                      *** Re-Reading the Fockian *** 
                      *** Removing any level shift *** 
ITER      Energy       Delta-E        Grad      Rot      Max-DP    RMS-DP
  5   -383.07494265  -0.0179607373  0.002346  0.002346  0.002388  0.000134
               *** Restarting incremental Fock matrix formation ***
  6   -383.07834605  -0.0034033981  0.001176  0.002324  0.002241  0.000096
  7   -383.07836838  -0.0000223284  0.000609  0.002481  0.001374  0.000056
  8   -383.07837575  -0.0000073707  0.000094  0.000242  0.000384  0.000016
  9   -383.07837614  -0.0000003938  0.000038  0.000044  0.000118  0.000005
 10   -383.07837623  -0.0000000896  0.000007  0.000012  0.000022  0.000001
 11   -383.07837625  -0.0000000145  0.000004  0.000005  0.000005  0.000000
                 **** Energy Check signals convergence ****
              ***Rediagonalizing the Fockian in SOSCF/NRSCF***

               *****************************************************
               *                     SUCCESS                       *
               *           SCF CONVERGED AFTER  12 CYCLES          *
               *****************************************************

Old exchange energy                            =    -54.667091505 Eh
New exchange energy                            =    -54.667219575 Eh
Exchange energy change after final integration =     -0.000128070 Eh
Total energy after final integration           =   -383.078504316 Eh
Final COS-X integration done in                =    10.648 sec

----------------
TOTAL SCF ENERGY
----------------

Total Energy       :         -383.07850432 Eh          -10424.09605 eV

Components:
Nuclear Repulsion  :          459.06018656 Eh           12491.66274 eV
Electronic Energy  :         -842.13869087 Eh          -22915.75879 eV
One Electron Energy:        -1427.03976769 Eh          -38831.72625 eV
Two Electron Energy:          584.90107682 Eh           15915.96745 eV
Max COSX asymmetry :            0.00001047 Eh               0.00028 eV
CPCM Dielectric    :           -0.00435566 Eh              -0.11852 eV

Virial components:
Potential Energy   :         -764.31076882 Eh          -20797.95337 eV
Kinetic Energy     :          381.23226451 Eh           10373.85731 eV
Virial Ratio       :            2.00484282

CPCM Solvation Model Properties:
Surface-charge          :           -0.02103143
Charge-correction       :            0.00000002 Eh               0.00000 eV
Free-energy (cav+disp)  :  This term is not implemented in the current solvation scheme

---------------
SCF CONVERGENCE
---------------

  Last Energy change         ...    1.2587e-09  Tolerance :   1.0000e-08
  Last MAX-Density change    ...    3.5527e-15  Tolerance :   1.0000e-07
  Last RMS-Density change    ...    5.0644e-17  Tolerance :   5.0000e-09
  Last Orbital Gradient      ...    4.8484e-07  Tolerance :   1.0000e-05
  Last Orbital Rotation      ...    7.7866e-07  Tolerance :   1.0000e-05

             **** THE GBW FILE WAS UPDATED (/scratch/dca0099.334549/Phos_naphtalene.gbw) ****
             **** DENSITY /scratch/dca0099.334549/Phos_naphtalene.scfp WAS UPDATED ****
             **** ENERGY FILE WAS UPDATED (/scratch/dca0099.334549/Phos_naphtalene.en.tmp) ****
             **** THE GBW FILE WAS UPDATED (/scratch/dca0099.334549/Phos_naphtalene.gbw) ****
             **** DENSITY /scratch/dca0099.334549/Phos_naphtalene.scfp WAS UPDATED ****
----------------
ORBITAL ENERGIES
----------------

  NO   OCC          E(Eh)            E(eV) 
   0   2.0000     -11.245535      -306.0066 
   1   2.0000     -11.244599      -305.9811 
   2   2.0000     -11.239664      -305.8468 
   3   2.0000     -11.239630      -305.8459 
   4   2.0000     -11.239486      -305.8420 
   5   2.0000     -11.239386      -305.8392 
   6   2.0000     -11.238361      -305.8113 
   7   2.0000     -11.238313      -305.8101 
   8   2.0000     -11.237619      -305.7912 
   9   2.0000     -11.237598      -305.7906 
  10   2.0000      -1.170521       -31.8515 
  11   2.0000      -1.103078       -30.0163 
  12   2.0000      -1.042934       -28.3797 
  13   2.0000      -1.000742       -27.2316 
  14   2.0000      -0.973455       -26.4891 
  15   2.0000      -0.848850       -23.0984 
  16   2.0000      -0.832214       -22.6457 
  17   2.0000      -0.808453       -21.9991 
  18   2.0000      -0.701870       -19.0989 
  19   2.0000      -0.701205       -19.0808 
  20   2.0000      -0.681067       -18.5328 
  21   2.0000      -0.620783       -16.8924 
  22   2.0000      -0.616039       -16.7633 
  23   2.0000      -0.589967       -16.0538 
  24   2.0000      -0.585858       -15.9420 
  25   2.0000      -0.564982       -15.3739 
  26   2.0000      -0.538747       -14.6600 
  27   2.0000      -0.526638       -14.3305 
  28   2.0000      -0.492843       -13.4109 
  29   2.0000      -0.479576       -13.0499 
  30   2.0000      -0.452657       -12.3174 
  31   2.0000      -0.390456       -10.6248 
  32   2.0000      -0.323901        -8.8138 
  33   2.0000      -0.292792        -7.9673 
  34   0.0000       0.085667         2.3311 
  35   0.0000       0.115479         3.1423 
  36   0.0000       0.173849         4.7307 
  37   0.0000       0.190391         5.1808 
  38   0.0000       0.206907         5.6302 
  39   0.0000       0.209218         5.6931 
  40   0.0000       0.244470         6.6524 
  41   0.0000       0.248738         6.7685 
  42   0.0000       0.266007         7.2384 
  43   0.0000       0.273263         7.4359 
  44   0.0000       0.283711         7.7202 
  45   0.0000       0.309720         8.4279 
  46   0.0000       0.394033        10.7222 
  47   0.0000       0.407582        11.0909 
  48   0.0000       0.437818        11.9136 
  49   0.0000       0.453571        12.3423 
  50   0.0000       0.462669        12.5899 
  51   0.0000       0.471079        12.8187 
  52   0.0000       0.472199        12.8492 
  53   0.0000       0.497230        13.5303 
  54   0.0000       0.507354        13.8058 
  55   0.0000       0.543796        14.7974 
  56   0.0000       0.546130        14.8610 
  57   0.0000       0.555295        15.1104 
  58   0.0000       0.591156        16.0862 
  59   0.0000       0.601911        16.3788 
  60   0.0000       0.621108        16.9012 
  61   0.0000       0.654162        17.8007 
  62   0.0000       0.670116        18.2348 
  63   0.0000       0.679543        18.4913 
  64   0.0000       0.684010        18.6129 
  65   0.0000       0.685952        18.6657 
  66   0.0000       0.705612        19.2007 
  67   0.0000       0.719690        19.5838 
  68   0.0000       0.726738        19.7755 
  69   0.0000       0.739209        20.1149 
  70   0.0000       0.750977        20.4351 
  71   0.0000       0.777203        21.1488 
  72   0.0000       0.783005        21.3066 
  73   0.0000       0.846963        23.0470 
  74   0.0000       0.852198        23.1895 
  75   0.0000       0.860973        23.4283 
  76   0.0000       0.876944        23.8629 
  77   0.0000       0.885121        24.0854 
  78   0.0000       0.891552        24.2604 
  79   0.0000       0.896164        24.3859 
  80   0.0000       0.896825        24.4039 
  81   0.0000       0.925609        25.1871 
  82   0.0000       0.930440        25.3186 
  83   0.0000       0.944560        25.7028 
  84   0.0000       0.949948        25.8494 
  85   0.0000       0.992428        27.0053 
  86   0.0000       0.994694        27.0670 
  87   0.0000       0.997900        27.1542 
  88   0.0000       1.014905        27.6170 
  89   0.0000       1.014927        27.6176 
  90   0.0000       1.085682        29.5429 
  91   0.0000       1.089322        29.6420 
  92   0.0000       1.105052        30.0700 
  93   0.0000       1.107790        30.1445 
  94   0.0000       1.154899        31.4264 
  95   0.0000       1.167576        31.7714 
  96   0.0000       1.264820        34.4175 
  97   0.0000       1.328391        36.1474 
  98   0.0000       1.352494        36.8032 
  99   0.0000       1.356639        36.9160 
 100   0.0000       1.404203        38.2103 
 101   0.0000       1.454423        39.5769 
 102   0.0000       1.488289        40.4984 
 103   0.0000       1.491976        40.5987 
 104   0.0000       1.493094        40.6292 
 105   0.0000       1.516976        41.2790 
 106   0.0000       1.522297        41.4238 
 107   0.0000       1.524448        41.4823 
 108   0.0000       1.531322        41.6694 
 109   0.0000       1.537487        41.8372 
 110   0.0000       1.587238        43.1909 
 111   0.0000       1.591144        43.2972 
 112   0.0000       1.593913        43.3726 
 113   0.0000       1.753285        47.7093 
 114   0.0000       1.764546        48.0157 
 115   0.0000       1.912602        52.0446 
 116   0.0000       1.918153        52.1956 
 117   0.0000       1.931042        52.5463 
 118   0.0000       1.956555        53.2406 
 119   0.0000       1.978106        53.8270 
 120   0.0000       2.007020        54.6138 
 121   0.0000       2.012252        54.7562 
 122   0.0000       2.017333        54.8944 
 123   0.0000       2.023536        55.0632 
 124   0.0000       2.057003        55.9739 
 125   0.0000       2.067167        56.2505 
 126   0.0000       2.069807        56.3223 
 127   0.0000       2.079697        56.5914 
 128   0.0000       2.085108        56.7387 
 129   0.0000       2.089947        56.8704 
 130   0.0000       2.095636        57.0252 
 131   0.0000       2.106599        57.3235 
 132   0.0000       2.219092        60.3846 
 133   0.0000       2.220076        60.4113 
 134   0.0000       2.241605        60.9972 
 135   0.0000       2.249587        61.2144 
 136   0.0000       2.249951        61.2243 
 137   0.0000       2.286323        62.2140 
 138   0.0000       2.288068        62.2615 
 139   0.0000       2.335094        63.5411 
 140   0.0000       2.350533        63.9612 
 141   0.0000       2.386544        64.9412 
 142   0.0000       2.437135        66.3178 
 143   0.0000       2.447453        66.5986 
 144   0.0000       2.449520        66.6548 
 145   0.0000       2.459711        66.9321 
 146   0.0000       2.482194        67.5439 
 147   0.0000       2.488859        67.7253 
 148   0.0000       2.516026        68.4646 
 149   0.0000       2.569248        69.9128 
 150   0.0000       2.619555        71.2817 
 151   0.0000       2.620005        71.2940 
 152   0.0000       2.623421        71.3869 
 153   0.0000       2.697147        73.3931 
 154   0.0000       2.713070        73.8264 
 155   0.0000       2.723742        74.1168 
 156   0.0000       2.740312        74.5677 
 157   0.0000       2.791181        75.9519 
 158   0.0000       2.848530        77.5125 
 159   0.0000       2.871120        78.1272 
 160   0.0000       2.928714        79.6944 
 161   0.0000       2.948173        80.2239 
 162   0.0000       2.986879        81.2771 
 163   0.0000       2.992307        81.4248 
 164   0.0000       3.030815        82.4727 
 165   0.0000       3.084908        83.9446 
 166   0.0000       3.104167        84.4687 
 167   0.0000       3.106220        84.5245 
 168   0.0000       3.122224        84.9600 
 169   0.0000       3.153890        85.8217 
 170   0.0000       3.256053        88.6017 
 171   0.0000       3.260695        88.7280 
 172   0.0000       3.297283        89.7236 
 173   0.0000       3.361459        91.4699 
 174   0.0000       3.483882        94.8013 
 175   0.0000       3.495439        95.1157 
 176   0.0000       3.531563        96.0987 
 177   0.0000       3.649331        99.3033 
 178   0.0000       3.952689       107.5581 
 179   0.0000       4.074131       110.8627 

                    ********************************
                    * MULLIKEN POPULATION ANALYSIS *
                    ********************************

-----------------------
MULLIKEN ATOMIC CHARGES
-----------------------
   0 C :   -0.041733
   1 C :   -0.008381
   2 C :   -0.079043
   3 C :   -0.079044
   4 C :   -0.008451
   5 C :   -0.043253
   6 H :    0.039962
   7 H :    0.049977
   8 H :    0.040046
   9 C :   -0.008454
  10 C :   -0.008365
  11 H :    0.039960
  12 H :    0.050874
  13 C :   -0.041737
  14 C :   -0.043254
  15 H :    0.040047
  16 H :    0.049976
  17 H :    0.050874
Sum of atomic charges:    0.0000000

--------------------------------
MULLIKEN REDUCED ORBITAL CHARGES
--------------------------------
  0 C s       :     3.135684  s :     3.135684
      pz      :     0.988282  p :     2.861554
      px      :     0.946190
      py      :     0.927082
      dz2     :     0.003585  d :     0.044495
      dxz     :     0.007325
      dyz     :     0.003762
      dx2y2   :     0.014392
      dxy     :     0.015430
  1 C s       :     3.164260  s :     3.164260
      pz      :     0.983595  p :     2.800139
      px      :     0.902868
      py      :     0.913676
      dz2     :     0.003608  d :     0.043982
      dxz     :     0.007602
      dyz     :     0.003413
      dx2y2   :     0.013743
      dxy     :     0.015616
  2 C s       :     3.030898  s :     3.030898
      pz      :     0.982367  p :     2.995772
      px      :     0.975420
      py      :     1.037985
      dz2     :     0.004368  d :     0.052373
      dxz     :     0.007171
      dyz     :     0.006479
      dx2y2   :     0.016958
      dxy     :     0.017397
  3 C s       :     3.030894  s :     3.030894
      pz      :     0.982366  p :     2.995777
      px      :     0.975432
      py      :     1.037980
      dz2     :     0.004368  d :     0.052373
      dxz     :     0.007171
      dyz     :     0.006479
      dx2y2   :     0.016958
      dxy     :     0.017397
  4 C s       :     3.166080  s :     3.166080
      pz      :     0.983400  p :     2.798393
      px      :     0.914510
      py      :     0.900483
      dz2     :     0.003608  d :     0.043978
      dxz     :     0.005785
      dyz     :     0.005232
      dx2y2   :     0.015212
      dxy     :     0.014141
  5 C s       :     3.135021  s :     3.135021
      pz      :     0.988751  p :     2.863726
      px      :     0.930258
      py      :     0.944717
      dz2     :     0.003587  d :     0.044507
      dxz     :     0.003209
      dyz     :     0.007874
      dx2y2   :     0.015355
      dxy     :     0.014482
  6 H s       :     0.933983  s :     0.933983
      pz      :     0.003981  p :     0.026055
      px      :     0.007000
      py      :     0.015075
  7 H s       :     0.924163  s :     0.924163
      pz      :     0.003897  p :     0.025861
      px      :     0.006740
      py      :     0.015224
  8 H s       :     0.933902  s :     0.933902
      pz      :     0.003981  p :     0.026053
      px      :     0.006775
      py      :     0.015296
  9 C s       :     3.166085  s :     3.166085
      pz      :     0.983399  p :     2.798392
      px      :     0.914520
      py      :     0.900473
      dz2     :     0.003608  d :     0.043978
      dxz     :     0.005785
      dyz     :     0.005231
      dx2y2   :     0.015212
      dxy     :     0.014141
 10 C s       :     3.164268  s :     3.164268
      pz      :     0.983589  p :     2.800115
      px      :     0.902860
      py      :     0.913666
      dz2     :     0.003608  d :     0.043982
      dxz     :     0.007602
      dyz     :     0.003414
      dx2y2   :     0.013743
      dxy     :     0.015616
 11 H s       :     0.933984  s :     0.933984
      pz      :     0.003981  p :     0.026055
      px      :     0.007000
      py      :     0.015074
 12 H s       :     0.923294  s :     0.923294
      pz      :     0.003896  p :     0.025832
      px      :     0.019496
      py      :     0.002440
 13 C s       :     3.135682  s :     3.135682
      pz      :     0.988284  p :     2.861560
      px      :     0.946192
      py      :     0.927085
      dz2     :     0.003585  d :     0.044495
      dxz     :     0.007325
      dyz     :     0.003762
      dx2y2   :     0.014392
      dxy     :     0.015430
 14 C s       :     3.135024  s :     3.135024
      pz      :     0.988751  p :     2.863723
      px      :     0.930259
      py      :     0.944713
      dz2     :     0.003587  d :     0.044506
      dxz     :     0.003209
      dyz     :     0.007874
      dx2y2   :     0.015355
      dxy     :     0.014482
 15 H s       :     0.933900  s :     0.933900
      pz      :     0.003981  p :     0.026053
      px      :     0.006775
      py      :     0.015296
 16 H s       :     0.924163  s :     0.924163
      pz      :     0.003897  p :     0.025860
      px      :     0.006740
      py      :     0.015224
 17 H s       :     0.923294  s :     0.923294
      pz      :     0.003896  p :     0.025832
      px      :     0.019496
      py      :     0.002440


                     *******************************
                     * LOEWDIN POPULATION ANALYSIS *
                     *******************************

----------------------
LOEWDIN ATOMIC CHARGES
----------------------
   0 C :   -0.030007
   1 C :   -0.016757
   2 C :   -0.029796
   3 C :   -0.029794
   4 C :   -0.016618
   5 C :   -0.030522
   6 H :    0.030897
   7 H :    0.030878
   8 H :    0.030885
   9 C :   -0.016616
  10 C :   -0.016754
  11 H :    0.030896
  12 H :    0.031036
  13 C :   -0.030008
  14 C :   -0.030520
  15 H :    0.030887
  16 H :    0.030878
  17 H :    0.031035

-------------------------------
LOEWDIN REDUCED ORBITAL CHARGES
-------------------------------
  0 C s       :     2.850562  s :     2.850562
      pz      :     0.968507  p :     3.079410
      px      :     1.067263
      py      :     1.043640
      dz2     :     0.006973  d :     0.100036
      dxz     :     0.013617
      dyz     :     0.006678
      dx2y2   :     0.034540
      dxy     :     0.038227
  1 C s       :     2.848779  s :     2.848779
      pz      :     0.968398  p :     3.068304
      px      :     1.062425
      py      :     1.037482
      dz2     :     0.006995  d :     0.099674
      dxz     :     0.013859
      dyz     :     0.006137
      dx2y2   :     0.033625
      dxy     :     0.039059
  2 C s       :     2.833606  s :     2.833606
      pz      :     0.962454  p :     3.078470
      px      :     1.056590
      py      :     1.059426
      dz2     :     0.008404  d :     0.117719
      dxz     :     0.013753
      dyz     :     0.012502
      dx2y2   :     0.041151
      dxy     :     0.041909
  3 C s       :     2.833607  s :     2.833607
      pz      :     0.962453  p :     3.078468
      px      :     1.056586
      py      :     1.059429
      dz2     :     0.008404  d :     0.117719
      dxz     :     0.013752
      dyz     :     0.012503
      dx2y2   :     0.041152
      dxy     :     0.041907
  4 C s       :     2.848830  s :     2.848830
      pz      :     0.968273  p :     3.068104
      px      :     1.043691
      py      :     1.056140
      dz2     :     0.006994  d :     0.099684
      dxz     :     0.011400
      dyz     :     0.008601
      dx2y2   :     0.036823
      dxy     :     0.035867
  5 C s       :     2.850599  s :     2.850599
      pz      :     0.968818  p :     3.079910
      px      :     1.044368
      py      :     1.066724
      dz2     :     0.006970  d :     0.100013
      dxz     :     0.004766
      dyz     :     0.015523
      dx2y2   :     0.038389
      dxy     :     0.034365
  6 H s       :     0.899569  s :     0.899569
      pz      :     0.014205  p :     0.069534
      px      :     0.019427
      py      :     0.035902
  7 H s       :     0.899619  s :     0.899619
      pz      :     0.014147  p :     0.069503
      px      :     0.018812
      py      :     0.036544
  8 H s       :     0.899574  s :     0.899574
      pz      :     0.014211  p :     0.069541
      px      :     0.018776
      py      :     0.036554
  9 C s       :     2.848830  s :     2.848830
      pz      :     0.968272  p :     3.068102
      px      :     1.043693
      py      :     1.056137
      dz2     :     0.006994  d :     0.099684
      dxz     :     0.011400
      dyz     :     0.008601
      dx2y2   :     0.036824
      dxy     :     0.035866
 10 C s       :     2.848778  s :     2.848778
      pz      :     0.968392  p :     3.068300
      px      :     1.062425
      py      :     1.037483
      dz2     :     0.006995  d :     0.099675
      dxz     :     0.013858
      dyz     :     0.006137
      dx2y2   :     0.033625
      dxy     :     0.039059
 11 H s       :     0.899571  s :     0.899571
      pz      :     0.014205  p :     0.069534
      px      :     0.019427
      py      :     0.035901
 12 H s       :     0.899446  s :     0.899446
      pz      :     0.014155  p :     0.069518
      px      :     0.044898
      py      :     0.010465
 13 C s       :     2.850560  s :     2.850560
      pz      :     0.968507  p :     3.079412
      px      :     1.067263
      py      :     1.043641
      dz2     :     0.006973  d :     0.100037
      dxz     :     0.013617
      dyz     :     0.006678
      dx2y2   :     0.034541
      dxy     :     0.038227
 14 C s       :     2.850600  s :     2.850600
      pz      :     0.968818  p :     3.079908
      px      :     1.044367
      py      :     1.066723
      dz2     :     0.006970  d :     0.100012
      dxz     :     0.004766
      dyz     :     0.015523
      dx2y2   :     0.038389
      dxy     :     0.034364
 15 H s       :     0.899572  s :     0.899572
      pz      :     0.014211  p :     0.069541
      px      :     0.018776
      py      :     0.036554
 16 H s       :     0.899619  s :     0.899619
      pz      :     0.014147  p :     0.069503
      px      :     0.018812
      py      :     0.036544
 17 H s       :     0.899446  s :     0.899446
      pz      :     0.014155  p :     0.069518
      px      :     0.044898
      py      :     0.010465


                      *****************************
                      * MAYER POPULATION ANALYSIS *
                      *****************************

  NA   - Mulliken gross atomic population
  ZA   - Total nuclear charge
  QA   - Mulliken gross atomic charge
  VA   - Mayer's total valence
  BVA  - Mayer's bonded valence
  FA   - Mayer's free valence

  ATOM       NA         ZA         QA         VA         BVA        FA
  0 C      6.0417     6.0000    -0.0417     3.8511     3.8511     0.0000
  1 C      6.0084     6.0000    -0.0084     3.8718     3.8718     0.0000
  2 C      6.0790     6.0000    -0.0790     3.8360     3.8360     0.0000
  3 C      6.0790     6.0000    -0.0790     3.8360     3.8360     0.0000
  4 C      6.0085     6.0000    -0.0085     3.8730     3.8730    -0.0000
  5 C      6.0433     6.0000    -0.0433     3.8495     3.8495    -0.0000
  6 H      0.9600     1.0000     0.0400     0.9930     0.9930     0.0000
  7 H      0.9500     1.0000     0.0500     0.9856     0.9856     0.0000
  8 H      0.9600     1.0000     0.0400     0.9931     0.9931    -0.0000
  9 C      6.0085     6.0000    -0.0085     3.8730     3.8730     0.0000
 10 C      6.0084     6.0000    -0.0084     3.8718     3.8718    -0.0000
 11 H      0.9600     1.0000     0.0400     0.9930     0.9930    -0.0000
 12 H      0.9491     1.0000     0.0509     0.9852     0.9852    -0.0000
 13 C      6.0417     6.0000    -0.0417     3.8511     3.8511     0.0000
 14 C      6.0433     6.0000    -0.0433     3.8495     3.8495     0.0000
 15 H      0.9600     1.0000     0.0400     0.9931     0.9931    -0.0000
 16 H      0.9500     1.0000     0.0500     0.9856     0.9856     0.0000
 17 H      0.9491     1.0000     0.0509     0.9852     0.9852     0.0000

  Mayer bond orders larger than 0.100000
B(  0-C ,  1-C ) :   1.5741 B(  0-C ,  5-C ) :   1.2437 B(  0-C ,  7-H ) :   1.0031 
B(  1-C ,  2-C ) :   1.2411 B(  1-C ,  8-H ) :   1.0075 B(  2-C ,  3-C ) :   1.2965 
B(  2-C ,  9-C ) :   1.2405 B(  3-C ,  4-C ) :   1.2404 B(  3-C , 10-C ) :   1.2411 
B(  4-C ,  5-C ) :   1.5744 B(  4-C , 11-H ) :   1.0079 B(  5-C , 12-H ) :   1.0021 
B(  6-H ,  9-C ) :   1.0079 B(  9-C , 14-C ) :   1.5743 B( 10-C , 13-C ) :   1.5741 
B( 10-C , 15-H ) :   1.0075 B( 13-C , 14-C ) :   1.2437 B( 13-C , 16-H ) :   1.0031 
B( 14-C , 17-H ) :   1.0021 

-------
TIMINGS
-------

Total SCF time: 0 days 0 hours 1 min 7 sec 

Total time                  ....      67.371 sec
Sum of individual times     ....      67.089 sec  ( 99.6%)

Fock matrix formation       ....      64.495 sec  ( 95.7%)
  Split-RI-J                ....       5.594 sec  (  8.7% of F)
  Chain of spheres X        ....      52.265 sec  ( 81.0% of F)
Diagonalization             ....       0.029 sec  (  0.0%)
Density matrix formation    ....       0.005 sec  (  0.0%)
Population analysis         ....       0.004 sec  (  0.0%)
Initial guess               ....       0.521 sec  (  0.8%)
Orbital Transformation      ....       0.000 sec  (  0.0%)
Orbital Orthonormalization  ....       0.000 sec  (  0.0%)
DIIS solution               ....       0.008 sec  (  0.0%)
SOSCF solution              ....       0.022 sec  (  0.0%)

Maximum memory used throughout the entire SCF-calculation: 76.6 MB


--------------------------------------------------------------------------------
                             ORCA-MATRIX DRIVEN CI
--------------------------------------------------------------------------------


Wavefunction type
-----------------
Correlation treatment                      ...      CCSD     
Single excitations                         ... ON
Orbital optimization                       ... OFF
Calculation of Z vector                    ... OFF
Calculation of Brueckner orbitals          ... OFF
Perturbative triple excitations            ... OFF
Calculation of F12 correction              ... OFF
Frozen core treatment                      ... chemical core (20 el)
Reference Wavefunction                     ... RHF
  Internal Orbitals:    10 ...   33 ( 24 MO's/ 48 electrons)
  Virtual  Orbitals:    34 ...  179 (146 MO's              )
Number of AO's                             ...    180
Number of electrons                        ...     68
Number of correlated electrons             ...     48

Algorithmic settings
--------------------
Integral transformation                    ... All integrals via the RI transformation
K(C) Formation                             ... RI-DLPNO
   PNO-Integral Storage                    ... ON DISK
   PNO occupation number cut-off           ... 3.330e-07
   Singles PNO occupation number cut-off   ... 9.990e-09
   PNO Mulliken prescreening cut-off       ... 1.000e-03
   Domain cut-off (Mulliken population)    ... 1.000e-03
   PNO Normalization                       ...    1
Maximum number of iterations               ...       120
Convergence tolerance (max. residuum)      ... 1.000e-05
Level shift for amplitude update           ... 2.000e-01
Maximum number of DIIS vectors             ...         7
DIIS turned on at iteration                ...         0
Damping before turning on DIIS             ...     0.500
Damping after turning on DIIS              ...     0.000
Pair specific amplitude update             ... OFF
Natural orbital iterations                 ... OFF
Perturbative natural orbital generation    ... OFF
Printlevel                                 ... 2

Singles Fock matrix elements calculated using PNOs.

Memory handling:
----------------
Maximum memory for working arrays          ... 120000 MB
Data storage in matrix containers          ... UNCOMPRESSED
Data type for integral storage             ... DOUBLE
In-Core Storage of quantities:
   Amplitudes+Sigma Vector      ... NO
   J+K operators                ... NO
   DIIS vectors                 ... NO
   3-external integrals         ... NO
   4-external integrals         ... NO

Localization treatment:
-----------------------
Localization option                        ...    6
Localization threshhold                    ... -1.0e+00
Using relative localization threshhold     ... 1.0e-08
Neglect threshold for strong pairs         ... 1.000e-04 Eh
Prescreening threshold for very weak pairs ... 1.000e-06 Eh

Initializing the integral package          ... done
Localizing the valence orbitals
------------------------------------------------------------------------------
                           ORCA ORBITAL LOCALIZATION
------------------------------------------------------------------------------

Input orbitals are from                  ... /scratch/dca0099.334549/Phos_naphtalene.gbw
Output orbitals are to                   ... /scratch/dca0099.334549/Phos_naphtalene.loc
Max. number of iterations                ... 128
Localizations seeded randomly            ... off
Convergence tolerance                    ... 1.000e-06
Using relative localization threshhold   ... 1.000e-08
Treshold for strong local MOs            ... 9.500e-01
Treshold for bond MOs                    ... 8.500e-01
Operator                                 ... 0
Orbital range for localization           ... 10 to 33
Localization criterion                   ... FOSTER-BOYS (AUGMENTED HESSIAN)
Doing the dipole integrals     ... o.k.
Initial value of the localization sum :   300.459517
ITERATION   0 : L=  395.4958275829 DL=  9.50e+01 (AVERGE_DL)=    0.5868001855 
ITERATION   1 : L=  420.5349789265 DL=  2.50e+01 (AVERGE_DL)=    0.3012002039 
ITERATION   2 : L=  422.1322299046 DL=  1.60e+00 (AVERGE_DL)=    0.0760732622 
ITERATION   3 : L=  422.2031958107 DL=  7.10e-02 (AVERGE_DL)=    0.0160350506 
ITERATION   4 : L=  422.2078946254 DL=  4.70e-03 (AVERGE_DL)=    0.0041260988 
ITERATION   5 : L=  422.2082038243 DL=  3.09e-04 (AVERGE_DL)=    0.0010584356 
ITERATION   6 : L=  422.2082241181 DL=  2.03e-05 (AVERGE_DL)=    0.0002711605 
ITERATION   7 : L=  422.2082254707 DL=  1.35e-06 (AVERGE_DL)=    0.0000700058 
ITERATION   8 : L=  422.2082255622 DL=  9.15e-08 (AVERGE_DL)=    0.0000182040 
LOCALIZATION SUM CONVERGED

------------------------------------------------------
AUGMENTED HESSIAN OPTIMIZATION OF FOSTER-BOYS ORBITALS
------------------------------------------------------

Spin operator:           0
Orbital window:          10 to 33
Number of iterations:    128
Gradient tolerance:      1.000e-06
Number of pairs:         276
Davidson threshold:      2000
Diagonalization method:  LAPACK
Iter:    0   L: 422.2082255622   Grad. norm: 2.052588e-03
   *** Likely close to a maximum now. ***
       Augmented Hessian eigenvalues:  3.10e-08 -3.83e+00 -4.05e+00 -4.13e+00 ... 
Iter:    1   L: 422.2082255777   Grad. norm: 6.686137e-09
LOCALIZATION HAS CONVERGED.

Eigenvalues of the Hessian:
  0 -3.829e+00
  1 -4.050e+00
  2 -4.130e+00
  3 -4.250e+00
  4 -4.251e+00
  5 -1.308e+01
  6 -1.364e+01
  7 -1.393e+01
  8 -1.412e+01
  9 -1.476e+01
    ...


--------------------------------------------------------------------------------
                    LOCALIZED MOLECULAR ORBITAL COMPOSITIONS
--------------------------------------------------------------------------------

The Mulliken populations for each LMO on each atom are computed
The LMO`s will be ordered according to atom index and type
  (A) Strongly localized MO`s have populations of >=0.950 on one atom
  (B) Two center bond orbitals have populations of >=0.850 on two atoms
  (C) Other MO`s are considered to be `delocalized`

FOUND  -   0 strongly local MO`s
       -  24 two center bond MO`s
       -   0 significantly delocalized MO`s

Bond-like localized orbitals:
MO  33:  17H  -   0.484394  and  14C  -   0.544034
MO  32:  16H  -   0.484773  and  13C  -   0.544254
MO  31:  15H  -   0.487778  and  10C  -   0.544226
MO  30:  14C  -   0.516650  and  13C  -   0.515812
MO  29:  14C  -   0.480761  and   9C  -   0.486380
MO  28:  14C  -   0.480761  and   9C  -   0.486380
MO  27:  13C  -   0.480335  and  10C  -   0.486743
MO  26:  13C  -   0.480336  and  10C  -   0.486742
MO  25:  12H  -   0.484394  and   5C  -   0.544032
MO  24:  11H  -   0.487872  and   4C  -   0.544498
MO  23:  10C  -   0.477193  and   3C  -   0.551076
MO  22:   9C  -   0.544499  and   6H  -   0.487871
MO  21:   9C  -   0.477109  and   2C  -   0.551098
MO  20:   8H  -   0.487779  and   1C  -   0.544223
MO  19:   7H  -   0.484772  and   0C  -   0.544253
MO  18:   5C  -   0.480766  and   4C  -   0.486379
MO  17:   5C  -   0.480764  and   4C  -   0.486381
MO  16:   5C  -   0.516649  and   0C  -   0.515812
MO  15:   4C  -   0.477111  and   3C  -   0.551094
MO  14:   3C  -   0.451273  and   2C  -   0.451270
MO  13:   3C  -   0.451270  and   2C  -   0.451272
MO  12:   2C  -   0.551071  and   1C  -   0.477196
MO  11:   1C  -   0.486747  and   0C  -   0.480337
MO  10:   1C  -   0.486748  and   0C  -   0.480336
Localized MO's were stored in: /scratch/dca0099.334549/Phos_naphtalene.loc

Localizing the core orbitals
------------------------------------------------------------------------------
                           ORCA ORBITAL LOCALIZATION
------------------------------------------------------------------------------

Input orbitals are from                  ... /scratch/dca0099.334549/Phos_naphtalene.loc
Output orbitals are to                   ... /scratch/dca0099.334549/Phos_naphtalene.loc
Max. number of iterations                ... 128
Localizations seeded randomly            ... off
Convergence tolerance                    ... 1.000e-06
Using relative localization threshhold   ... 1.000e-08
Treshold for strong local MOs            ... 9.500e-01
Treshold for bond MOs                    ... 8.500e-01
Operator                                 ... 0
Orbital range for localization           ... 0 to 9
Localization criterion                   ... FOSTER-BOYS (AUGMENTED HESSIAN)
Doing the dipole integrals     ... o.k.
Initial value of the localization sum :   144.430405
ITERATION   0 : L=  144.4304109920 DL=  6.09e-06 (AVERGE_DL)=    0.0003677862 
ITERATION   1 : L=  144.4304109920 DL=  0.00e+00 (AVERGE_DL)=    0.0000000000 
LOCALIZATION SUM CONVERGED

------------------------------------------------------
AUGMENTED HESSIAN OPTIMIZATION OF FOSTER-BOYS ORBITALS
------------------------------------------------------

Spin operator:           0
Orbital window:          0 to 9
Number of iterations:    128
Gradient tolerance:      1.000e-06
Number of pairs:         45
Davidson threshold:      2000
Diagonalization method:  LAPACK
Iter:    0   L: 144.4304109920   Grad. norm: 5.966010e-04
   *** Likely close to a maximum now. ***
       Augmented Hessian eigenvalues:  1.40e-09 -2.68e+01 -2.68e+01 -2.68e+01 ... 
Iter:    1   L: 144.4304109927   Grad. norm: 3.333944e-15
LOCALIZATION HAS CONVERGED.

Eigenvalues of the Hessian:
  0 -2.683e+01
  1 -2.683e+01
  2 -2.683e+01
  3 -2.683e+01
  4 -2.849e+01
  5 -2.849e+01
  6 -2.862e+01
  7 -2.862e+01
  8 -2.862e+01
  9 -2.862e+01
    ...


--------------------------------------------------------------------------------
                    LOCALIZED MOLECULAR ORBITAL COMPOSITIONS
--------------------------------------------------------------------------------

The Mulliken populations for each LMO on each atom are computed
The LMO`s will be ordered according to atom index and type
  (A) Strongly localized MO`s have populations of >=0.950 on one atom
  (B) Two center bond orbitals have populations of >=0.850 on two atoms
  (C) Other MO`s are considered to be `delocalized`

FOUND  -  10 strongly local MO`s
       -   0 two center bond MO`s
       -   0 significantly delocalized MO`s

Rather strongly localized orbitals:
MO   9:  14C  -   0.999053
MO   8:  13C  -   0.999141
MO   7:  10C  -   1.001383
MO   6:   9C  -   1.001348
MO   5:   5C  -   0.999053
MO   4:   4C  -   1.001348
MO   3:   3C  -   1.000892
MO   2:   2C  -   1.000892
MO   1:   1C  -   1.001383
MO   0:   0C  -   0.999141
Localized MO's were stored in: /scratch/dca0099.334549/Phos_naphtalene.loc

Warning: reference  - re-canonicalizations have been set to INT 1 VIRT 1
Warning: internal orbitals are localized - no re-canonicalization of internal orbitals
Warning: UsePNO is turned on - no re-canonicalization of internal and virtual orbitals

--------------------------
CLOSED-SHELL FOCK OPERATOR
--------------------------

Restoring SHARK [2] ... ok
MDCI_FockCPCM: ediel   =  -0.004355656000
MDCI_FockCPCM: <VCPCM> =  -0.125494843511
Entering RIJCOSX section for the Fock matrix
Trying to retrieve the full J-matrix              ... done
Updating the Fock matrix                          ... done
Making the frozen core Coulomb matrix             ... SHARKdone
Retrieving the full K-matrix                      ... done
Calculating the frozen core K-matrix              ... done
Updating the Fock matrix                          ... done
Time needed for Fock operator              ...            8.778 sec
Reference energy                           ...   -383.078503564

--------------
DLPNO SETTINGS (2015 fully linear scaling implementation)
--------------

TCutMKN:           1.000e-03
TCutPAO:           1.000e-03
TCutPNO:           3.330e-07
TCutPNOSingles:    9.990e-09
TCutEN:            9.700e-01
TCutPAOExt:        1.000e-01
TCutPairs:         1.000e-04
TCutPre:           1.000e-06
TCutOSV:           1.000e-06
TCutDOij:          1.000e-05
TCutDO:            1.000e-02
TCutC:             1.000e-04
TCutCPAO:          1.000e-03
TCutCMO:           1.000e-03
TScaleDOMP2PreScr: 2.000e+00
TScaleMKNMP2PreScr:1.000e+01
TScalePNOMP2PreScr:1.000e+00
PAO overlap thresh 1.000e-08
Using PNOs for Singles Fock computation
Use new domains
Use fully linear algorithm

--------------------------
Mulliken population of the LMOs            ... ok
Performing proximity check                 ... No problems found
Calculating differential overlap integrals ... ok

--------------------------
ELECTRON PAIR PRESCREENING
--------------------------

Dipole-based pair screening          .... used

   TCutDOij = 1.000000e-05
   TCutPre  = 1.000000e-06
   .... Finished loop over pairs
Total time spent in the prescreening                  ...     0.000 sec
sum of pair energies estimated for screened out pairs ...       0.000000000000 Eh
Thresholds for map construction and integral transformation for crude MP2:
   TCutMKN                    ...     1.0e-02
   TCutDO                     ...     2.0e-02
   TCutPairs                  ...     1.0e-04
   TCutPNO_CrudeMP2           ...     3.3e-07
   TCutPNOSingles_CrudeMP2    ...     1.0e-08
--------------------------------
LOCAL RI TRANSFORMATION (IAVPAO)
--------------------------------

Orbital window:      10 to 33
Number of PAOs:     180
Basis functions:    180 (84 shells)
Aux. functions:     592 (208 shells)
Use SHARK:           on

Processing maps (0.0 sec)
Average map sizes:
   Aux shells -> MOs              24.0
   Aux shells -> PAOs            180.0
   MOs        -> AO shells        78.5
   PAOs       -> AO shells        83.7

Calculating integrals (0.6 sec, 19.518 MB)
Sorting integrals (0.0 sec, 19.512 MB)
Total time for the integral transformation: 0.6 sec
--------------------------------
INITIAL GUESS AND PNO GENERATION
--------------------------------

PNO truncation parameters                   .... 
    PAOOverlapThresh   =        1.000e-08

    TCutPairs          =        1.000e-04
    TCutPNO            =        3.330e-07
    TCutPNOSingles     =        9.990e-09
    TCutMP2Pairs       =        1.000e-05
    TCutMKN            =        1.000e-02
    TCutDO             =        2.000e-02

Pair selection                          .... not used
Type of local MP2 treatment                 .... semi-local MP2
Strategy for PNO selection                  .... occupation number selection
Pair density normalization                  .... MP2 norm
Spin component scaling                      .... not used

   .... Finished loop over pairs
Making pair pair interaction lists          ... done

                       ===========================
                        239 OF  300 PAIRS ARE KEPT CCSD PAIRS
                         48 OF  300 PAIRS ARE KEPT MP2 PAIRS
[...]
   State   Energy  Wavelength    fosc         T2              TX                    TY                    TZ  
           (cm-1)     (nm)                  (au**2)          (au)                  (au)                  (au) 
---------------------------------------------------------------------------------------------------------------------
   0   1   23567.8    424.3   0.000000097   0.00000 (  0.00108,  0.00042) ( -0.00012, -0.00005) (  0.00002,  0.00001)
   0   2   23567.8    424.3   0.000000001   0.00000 ( -0.00002,  0.00011) (  0.00000, -0.00002) ( -0.00000,  0.00000)
   0   3   23567.8    424.3   0.000000020   0.00000 (  0.00051,  0.00009) ( -0.00011, -0.00002) (  0.00001,  0.00000)
   0   4   29894.6    334.5   0.005511079   0.06069 (  0.14436, -0.13438) (  0.10803, -0.10056) (  0.00238, -0.00222)
   0   5   34303.9    291.5   0.000000000   0.00000 ( -0.00003, -0.00005) (  0.00001,  0.00003) ( -0.00000, -0.00000)
   0   6   34303.9    291.5   0.000000010   0.00000 (  0.00021, -0.00010) ( -0.00019,  0.00009) (  0.00001, -0.00000)
   0   7   34303.9    291.5   0.000000092   0.00000 (  0.00045,  0.00040) ( -0.00054, -0.00048) (  0.00002,  0.00002)
   0   8   34492.6    289.9   0.000000005   0.00000 (  0.00010,  0.00014) ( -0.00007, -0.00010) (  0.00000,  0.00001)
   0   9   34492.6    289.9   0.000000017   0.00000 ( -0.00025,  0.00018) (  0.00021, -0.00015) ( -0.00001,  0.00001)
   0  10   34492.6    289.9   0.000000111   0.00000 ( -0.00048,  0.00051) (  0.00052, -0.00055) ( -0.00002,  0.00002)
   0  11   35325.2    283.1   0.000000000   0.00000 ( -0.00002,  0.00001) (  0.00004, -0.00001) (  0.00000, -0.00000)
   0  12   35325.2    283.1   0.000000001   0.00000 ( -0.00001, -0.00002) (  0.00004,  0.00007) ( -0.00000, -0.00000)
   0  13   35325.2    283.1   0.000000092   0.00000 (  0.00005,  0.00029) ( -0.00015, -0.00086) (  0.00000,  0.00002)
   0  14   41752.2    239.5   0.000000007   0.00000 (  0.00011,  0.00014) ( -0.00010, -0.00012) (  0.00000,  0.00000)
   0  15   41752.2    239.5   0.000000008   0.00000 ( -0.00006,  0.00016) (  0.00006, -0.00017) ( -0.00000,  0.00001)
   0  16   41752.2    239.5   0.000000103   0.00000 ( -0.00062,  0.00028) (  0.00054, -0.00024) ( -0.00002,  0.00001)
   0  17   48367.9    206.7   0.014145312   0.09628 (  0.04189,  0.05473) (  0.17980,  0.23495) (  0.03845,  0.05024)
   0  18   53884.6    185.6   0.046029781   0.28122 ( -0.09076, -0.42937) ( -0.06156, -0.29120) ( -0.00126, -0.00594)
   0  19   56060.6    178.4   0.000000073   0.00000 (  0.00009, -0.00024) (  0.00020, -0.00056) ( -0.00001,  0.00003)
   0  20   56060.6    178.4   0.000000005   0.00000 ( -0.00001, -0.00000) ( -0.00017, -0.00005) (  0.00000,  0.00000)
   0  21   56060.6    178.4   0.000000019   0.00000 ( -0.00002, -0.00019) (  0.00002,  0.00027) ( -0.00000, -0.00001)
   0  22   57118.3    175.1   0.111937964   0.64518 ( -0.18578,  0.61422) ( -0.13978,  0.46216) (  0.00471, -0.01557)
   0  23   57547.9    173.8   0.057331440   0.32797 (  0.09253, -0.34171) (  0.11725, -0.43299) ( -0.00985,  0.03638)
   0  24   58075.9    172.2   0.020129366   0.11411 ( -0.00830,  0.04049) ( -0.06635,  0.32390) (  0.01114, -0.05438)

---------------------------------------------------------------------------------------------------------------------
                    SOC CORRECTED ABSORPTION SPECTRUM VIA TRANSITION VELOCITY DIPOLE MOMENTS*  
---------------------------------------------------------------------------------------------------------------------
   State   Energy  Wavelength    fosc        P2              PX                    PY                    PZ  
           (cm-1)     (nm)                 (au**2)          (au)                  (au)                  (au) 
---------------------------------------------------------------------------------------------------------------------
   0   1   23567.8    424.3   0.000000129   0.00000 (  0.00004, -0.00011) (  0.00003, -0.00008) (  0.00000, -0.00000)
   0   2   23567.8    424.3   0.000000000   0.00000 (  0.00000,  0.00000) (  0.00000,  0.00000) ( -0.00000, -0.00000)
   0   3   23567.8    424.3   0.000000001   0.00000 (  0.00000, -0.00001) (  0.00000, -0.00001) ( -0.00000,  0.00000)
   0   4   29894.6    334.5   0.127494525   0.02605 ( -0.09308, -0.09999) ( -0.05856, -0.06291) ( -0.00066, -0.00071)
   0   5   34303.9    291.5   0.000000000   0.00000 ( -0.00000,  0.00000) ( -0.00000,  0.00000) ( -0.00000,  0.00000)
   0   6   34303.9    291.5   0.000000000   0.00000 ( -0.00000, -0.00001) ( -0.00000, -0.00000) ( -0.00000, -0.00000)
   0   7   34303.9    291.5   0.000000001   0.00000 (  0.00000, -0.00000) ( -0.00001,  0.00001) (  0.00000, -0.00000)
   0   8   34492.6    289.9   0.000000000   0.00000 (  0.00001, -0.00000) (  0.00000, -0.00000) (  0.00000, -0.00000)
   0   9   34492.6    289.9   0.000000000   0.00000 (  0.00000,  0.00001) (  0.00000,  0.00000) (  0.00000,  0.00000)
   0  10   34492.6    289.9   0.000000002   0.00000 ( -0.00001, -0.00001) ( -0.00001, -0.00001) (  0.00000,  0.00000)
   0  11   35325.2    283.1   0.000000001   0.00000 (  0.00000,  0.00001) (  0.00000,  0.00000) ( -0.00000, -0.00000)
   0  12   35325.2    283.1   0.000000000   0.00000 ( -0.00000,  0.00000) ( -0.00000,  0.00000) ( -0.00000,  0.00000)
   0  13   35325.2    283.1   0.000000032   0.00000 (  0.00008, -0.00001) (  0.00004, -0.00001) ( -0.00000,  0.00000)
   0  14   41752.2    239.5   0.000000000   0.00000 ( -0.00001,  0.00001) ( -0.00000,  0.00000) ( -0.00000,  0.00000)
   0  15   41752.2    239.5   0.000000000   0.00000 ( -0.00000, -0.00000) (  0.00000,  0.00000) ( -0.00000, -0.00000)
   0  16   41752.2    239.5   0.000000000   0.00000 ( -0.00000, -0.00001) (  0.00000,  0.00000) ( -0.00000, -0.00000)
   0  17   48367.9    206.7   0.029311596   0.00969 (  0.04092, -0.03132) (  0.06402, -0.04899) (  0.01837, -0.01406)
   0  18   53884.6    185.6   0.047071498   0.01734 ( -0.10990,  0.02323) ( -0.06717,  0.01420) ( -0.00188,  0.00040)
   0  19   56060.6    178.4   0.000000002   0.00000 (  0.00001,  0.00000) (  0.00002,  0.00001) (  0.00001,  0.00000)
   0  20   56060.6    178.4   0.000000000   0.00000 ( -0.00000,  0.00000) ( -0.00000,  0.00000) ( -0.00000,  0.00000)
   0  21   56060.6    178.4   0.000000008   0.00000 ( -0.00005,  0.00000) ( -0.00003,  0.00000) ( -0.00000,  0.00000)
   0  22   57118.3    175.1   0.007851835   0.00307 ( -0.03872, -0.01171) ( -0.03576, -0.01082) ( -0.00552, -0.00167)
   0  23   57547.9    173.8   0.007778582   0.00306 (  0.02984,  0.00808) (  0.04229,  0.01145) (  0.01311,  0.00355)
   0  24   58075.9    172.2   0.006252761   0.00248 ( -0.01503, -0.00308) ( -0.04184, -0.00857) ( -0.02014, -0.00413)

-------------------------------------------------------------------------------------------------------
                                     SOC CORRECTED CD SPECTRUM*  
-------------------------------------------------------------------------------------------------------
   State   Energy  Wavelength      R               MX                    MY                    MZ  
           (cm-1)     (nm)     (1e40*sgs)         (au)                  (au)                  (au) 
-------------------------------------------------------------------------------------------------------
   0   1   23567.8    424.3     -0.00002 ( -0.00001,  0.00001) (  0.00003, -0.00007) ( -0.00010,  0.00026)
   0   2   23567.8    424.3     -0.00000 ( -0.00001, -0.00000) ( -0.00000, -0.00000) ( -0.00001, -0.00000)
   0   3   23567.8    424.3     -0.00000 ( -0.00000,  0.00001) (  0.00000, -0.00000) ( -0.00000,  0.00002)
   0   4   29894.6    334.5      2.33769 (  0.02126,  0.02284) ( -0.05692, -0.06115) (  0.25485,  0.27377)
   0   5   34303.9    291.5      0.00000 ( -0.00000,  0.00000) ( -0.00001,  0.00000) (  0.00001, -0.00000)
   0   6   34303.9    291.5     -0.00000 ( -0.00000, -0.00000) ( -0.00000, -0.00001) (  0.00001,  0.00002)
   0   7   34303.9    291.5      0.00000 (  0.00001, -0.00002) (  0.00001, -0.00001) (  0.00000, -0.00000)
   0   8   34492.6    289.9     -0.00000 (  0.00000, -0.00000) (  0.00001, -0.00000) ( -0.00001,  0.00001)
   0   9   34492.6    289.9     -0.00000 (  0.00000,  0.00000) (  0.00000,  0.00000) ( -0.00001, -0.00001)
   0  10   34492.6    289.9      0.00001 (  0.00002,  0.00002) ( -0.00000, -0.00000) (  0.00003,  0.00003)
   0  11   35325.2    283.1      0.00000 ( -0.00001, -0.00002) ( -0.00000, -0.00001) ( -0.00001, -0.00003)
   0  12   35325.2    283.1     -0.00000 ( -0.00001,  0.00000) ( -0.00001,  0.00000) ( -0.00000,  0.00000)
   0  13   35325.2    283.1     -0.00002 ( -0.00004,  0.00001) (  0.00004, -0.00001) ( -0.00019,  0.00003)
   0  14   41752.2    239.5      0.00000 ( -0.00001,  0.00001) ( -0.00002,  0.00001) (  0.00000, -0.00000)
   0  15   41752.2    239.5     -0.00000 ( -0.00001, -0.00000) ( -0.00000, -0.00000) ( -0.00001, -0.00000)
   0  16   41752.2    239.5     -0.00000 ( -0.00001, -0.00003) ( -0.00001, -0.00003) ( -0.00002, -0.00005)
   0  17   48367.9    206.7      6.35827 (  0.04883, -0.03737) (  0.05569, -0.04262) ( -0.14433,  0.11045)
   0  18   53884.6    185.6      5.06427 ( -0.00786,  0.00166) ( -0.02753,  0.00582) (  0.18662, -0.03945)
   0  19   56060.6    178.4     -0.00005 (  0.00011,  0.00004) (  0.00013,  0.00005) (  0.00003,  0.00001)
   0  20   56060.6    178.4     -0.00000 (  0.00000, -0.00001) (  0.00000, -0.00001) (  0.00000, -0.00001)
   0  21   56060.6    178.4     -0.00000 ( -0.00001,  0.00000) ( -0.00002,  0.00000) (  0.00009, -0.00001)
   0  22   57118.3    175.1    -56.21577 ( -0.06130, -0.01854) ( -0.15789, -0.04776) ( -0.08841, -0.02674)
   0  23   57547.9    173.8    -73.27098 (  0.16856,  0.04564) (  0.20316,  0.05501) (  0.02108,  0.00571)
   0  24   58075.9    172.2    -38.60525 ( -0.25581, -0.05240) ( -0.20210, -0.04140) (  0.05091,  0.01043)

*The complex numbers are printed as (real, imaginary)

The electronic components of the SOC ground state dipole moment in a.u. are:
           X                     Y                     Z
( -0.00000, -0.00000) ( -0.00000, -0.00000) ( -0.00000, -0.00000)


--------------------------------------------------------------------------------
                                    TIMINGS
--------------------------------------------------------------------------------


Total execution time                   ...      991.960 sec

Localization of occupied MO's          ...        0.708 sec (  0.1%)
Fock Matrix Formation                  ...        8.794 sec (  0.9%)
Global overlap, Fock, MKN matrices     ...        0.189 sec (  0.0%)
Differential overlap integrals         ...        1.333 sec (  0.1%)
Organizing maps                        ...        0.008 sec (  0.0%)
RI 3-index integral generations        ...        2.816 sec (  0.3%)
RI-PNO integral transformation         ...      164.977 sec ( 16.6%)
Initial Guess                          ...        8.237 sec (  0.8%)
DIIS Solver                            ...        0.094 sec (  0.0%)
State Vector Update                    ...        0.005 sec (  0.0%)
Sigma-vector construction              ...      138.454 sec ( 14.0%)
  <0|H|D>                              ...        0.002 sec (  0.0% of sigma)
  <D|H|D>(0-ext)                       ...       11.651 sec (  8.4% of sigma)
  <D|H|D>(2-ext Fock)                  ...        0.049 sec (  0.0% of sigma)
  <D|H|D>(2-ext)                       ...       25.648 sec ( 18.5% of sigma)
  <D|H|D>(4-ext)                       ...       10.332 sec (  7.5% of sigma)
  <D|H|D>(4-ext-corr)                  ...       49.067 sec ( 35.4% of sigma)
  CCSD doubles correction              ...        0.635 sec (  0.5% of sigma)
  <S|H|S>                              ...        1.036 sec (  0.7% of sigma)
  <S|H|D>(1-ext)                       ...        1.272 sec (  0.9% of sigma)
  <D|H|S>(1-ext)                       ...        0.044 sec (  0.0% of sigma)
  <S|H|D>(3-ext)                       ...        0.558 sec (  0.4% of sigma)
  Fock-dressing                        ...       25.333 sec ( 18.3% of sigma)
  Singles amplitudes                   ...        0.188 sec (  0.1% of sigma)
  (ik|jl)-dressing                     ...        7.802 sec (  5.6% of sigma)
  (ij|ab),(ia|jb)-dressing             ...        4.765 sec (  3.4% of sigma)
  Pair energies                        ...        0.013 sec (  0.0% of sigma)
Total Time for computing EOM-CCSD      ...      646.666 sec ( 65.2% of ALL)
  Dressing integrals                   ...      272.014 sec ( 42.1% of (EOM))
  EOM Singles                          ...       41.751 sec (  6.5% of (EOM))
  EOM Doubles                          ...      320.370 sec ( 49.5% of (EOM))
  Build Hamiltonian                    ...        0.820 sec (  0.1% of (EOM))
  Diagonalize Hamiltonian              ...        0.315 sec (  0.0% of (EOM))
  Ritz vectors                         ...        1.583 sec (  0.2% of (EOM))
  Residual vectors                     ...        1.627 sec (  0.3% of (EOM))
  Orthogonalization                    ...        0.052 sec (  0.0% of (EOM))
One-particle density matrix            ...        0.294 sec (  0.0%)


Maximum memory used throughout the entire MDCI-calculation: 24708.1 MB

-------------------------   --------------------
FINAL SINGLE POINT ENERGY      -384.310499497833
-------------------------   --------------------


                            ***************************************
                            *     ORCA property calculations      *
                            ***************************************

                                    ---------------------
                                    Active property flags
                                    ---------------------
   (+) Dipole Moment


------------------------------------------------------------------------------
                       ORCA ELECTRIC PROPERTIES CALCULATION
------------------------------------------------------------------------------

Dipole Moment Calculation                       ... on
Quadrupole Moment Calculation                   ... off
Polarizability Calculation                      ... off
GBWName                                         ... /scratch/dca0099.334549/Phos_naphtalene_job3.gbw
Electron density                                ... /scratch/dca0099.334549/Phos_naphtalene_job3.scfp
The origin for moment calculation is the CENTER OF MASS  = ( 0.000000, -0.000000 -0.000000)

-------------
DIPOLE MOMENT
-------------
                                X             Y             Z
Electronic contribution:      0.00005       0.00000      -0.00001
Nuclear contribution   :     -0.00005       0.00001       0.00001
                        -----------------------------------------
Total Dipole Moment    :     -0.00000       0.00001       0.00000
                        -----------------------------------------
Magnitude (a.u.)       :      0.00002
Magnitude (Debye)      :      0.00004



--------------------
Rotational spectrum 
--------------------
 
Rotational constants in cm-1:     0.104651     0.041365     0.029647 
Rotational constants in MHz :  3137.370576  1240.091757   888.786035 

 Dipole components along the rotational axes: 
x,y,z [a.u.] :     0.000007     0.000013     0.000003 
x,y,z [Debye]:     0.000017     0.000034     0.000007 

 

                           *** MDCI DENSITY ***

------------------------------------------------------------------------------
                       ORCA ELECTRIC PROPERTIES CALCULATION
------------------------------------------------------------------------------

Dipole Moment Calculation                       ... on
Quadrupole Moment Calculation                   ... off
Polarizability Calculation                      ... off
GBWName                                         ... /scratch/dca0099.334549/Phos_naphtalene_job3.gbw
Electron density                                ... /scratch/dca0099.334549/Phos_naphtalene_job3.mdcip
The origin for moment calculation is the CENTER OF MASS  = ( 0.000000, -0.000000 -0.000000)

-------------
DIPOLE MOMENT
-------------
                                X             Y             Z
Electronic contribution:      0.00005       0.00000      -0.00001
Nuclear contribution   :     -0.00005       0.00001       0.00001
                        -----------------------------------------
Total Dipole Moment    :      0.00000       0.00001       0.00000
                        -----------------------------------------
Magnitude (a.u.)       :      0.00001
Magnitude (Debye)      :      0.00003



--------------------
Rotational spectrum 
--------------------
 
Rotational constants in cm-1:     0.104651     0.041365     0.029647 
Rotational constants in MHz :  3137.370576  1240.091757   888.786035 

 Dipole components along the rotational axes: 
x,y,z [a.u.] :     0.000007     0.000011     0.000003 
x,y,z [Debye]:     0.000018     0.000028     0.000006 

 

------------------------------------------------------------------------------
                           ORCA EXCITED STATE DYNAMICS
------------------------------------------------------------------------------

Requested calculation:				...phosphorescence
Coordinate system:				...Deloc. Internal (BAKER)
Lineshape function:				...Lorenztian
Excited state PES:				...adiabatic hessian
Apply Duschinky rotation:			...no
Use operator derivatives:			...yes
Convert derivatives between states:		...no
Use same frequencies:				...no
Multiroot calculation:				...no
Single mode calculation:			...no
Selected mode calculation:			...no

Ground state hessian:				Phos_naphtalene.GS.hess
Reading ground state hessian:			...done
Triplet state hessian:				Phos_naphtalene.TS.hess
Reading triplet state hessian:			...done

As an TS Hessian was given, HessFlag is now AH!
Adjusting all geometries to center of mass:	...done
Rotating the triplet state geometry:		...done
The RMSD is:	0.035154

Writting GS hessian to:				/scratch/dca0099.334549/Phos_naphtalene_job3.GS.hess
Calculating Wilson`s B Matrix:			...done
Converting to internal coordinates:		...done
Calculating rotation matrix J:			...done
Calculating displacement vector K:		...done
The sum of K*K is:				5.229635

Checking for transition data:			...done
Final check on derivatives:			...done
Writting GS hessian to:				/scratch/dca0099.334549/Phos_naphtalene_job3.GS.hess

          ***Everything is set, now computing the correlation function***

Homogeneous linewidth is:			50.00 cm-1
Number of points:				131072
Maximum time:					1592.65 fs
Spectral resolution:				3.33 cm-1
Temperature used:				298.15 K
Z value:					9.127953e-65
Cutoff for the correlation function:		1.00e-06
Adiabatic energy difference:			22650.19 cm-1
0-0 energy difference:				21491.08 cm-1
Reference transition dipole (x,y,z):		(5.08126e-04 9.14247e-05),
                                    		(-1.08285e-04 -1.94832e-05),
                                    		(8.37357e-06 1.50662e-06) 
Calculating correlation function:		...done
Last element of the correlation function:	-0.000000,0.000000
Computing the Fourier Transform:		...done

The calculated phosphorescence rate constant is	5.715914e+07 s-1*
with 0.00% from FC and 100.00% from HT

*The rate is multiplied by the square of the refractive index

The phosphorescence spectrum was saved in		/scratch/dca0099.334549/Phos_naphtalene_job3.spectrum

Total run time: 0 hours 0 minutes 11 seconds

                      ****ORCA ESD FINISHED WITHOUT ERROR****

Timings for individual modules:

Sum of individual times         ...     1027.334 sec (=  17.122 min)
GTO integral calculation        ...        0.213 sec (=   0.004 min)   0.0 %
SCF iterations                  ...       23.940 sec (=   0.399 min)   2.3 %
MDCI module                     ...      992.118 sec (=  16.535 min)  96.6 %
ESD module                      ...       11.063 sec (=   0.184 min)   1.1 %



                             ****ORCA TERMINATED NORMALLY****
TOTAL RUN TIME: 0 days 0 hours 52 minutes 54 seconds 921 msec
