
                                 *****************
                                 * O   R   C   A *
                                 *****************

                                            #,                                       
                                            ###                                      
                                            ####                                     
                                            #####                                    
                                            ######                                   
                                           ########,                                 
                                     ,,################,,,,,                         
                               ,,#################################,,                 
                          ,,##########################################,,             
                       ,#########################################, ''#####,          
                    ,#############################################,,   '####,        
                  ,##################################################,,,,####,       
                ,###########''''           ''''###############################       
              ,#####''   ,,,,##########,,,,          '''####'''          '####       
            ,##' ,,,,###########################,,,                        '##       
           ' ,,###''''                  '''############,,,                           
         ,,##''                                '''############,,,,        ,,,,,,###''
      ,#''                                            '''#######################'''  
     '                                                          ''''####''''         
             ,#######,   #######,   ,#######,      ##                                
            ,#'     '#,  ##    ##  ,#'     '#,    #''#        ######   ,####,        
            ##       ##  ##   ,#'  ##            #'  '#       #        #'  '#        
            ##       ##  #######   ##           ,######,      #####,   #    #        
            '#,     ,#'  ##    ##  '#,     ,#' ,#      #,         ##   #,  ,#        
             '#######'   ##     ##  '#######'  #'      '#     #####' # '####'        



                  #######################################################
                  #                        -***-                        #
                  #          Department of theory and spectroscopy      #
                  #    Directorship and core code : Frank Neese         #
                  #        Max Planck Institute fuer Kohlenforschung    #
                  #                Kaiser Wilhelm Platz 1               #
                  #                 D-45470 Muelheim/Ruhr               #
                  #                      Germany                        #
                  #                                                     #
                  #                  All rights reserved                #
                  #                        -***-                        #
                  #######################################################


                         Program Version 5.0.2 -  RELEASE  -


 With contributions from (in alphabetic order):
   Daniel Aravena         : Magnetic Suceptibility
   Michael Atanasov       : Ab Initio Ligand Field Theory (pilot matlab implementation)
   Alexander A. Auer      : GIAO ZORA, VPT2 properties, NMR spectrum
   Ute Becker             : Parallelization
   Giovanni Bistoni       : ED, misc. LED, open-shell LED, HFLD
   Martin Brehm           : Molecular dynamics
   Dmytro Bykov           : SCF Hessian
   Vijay G. Chilkuri      : MRCI spin determinant printing, contributions to CSF-ICE
   Dipayan Datta          : RHF DLPNO-CCSD density
   Achintya Kumar Dutta   : EOM-CC, STEOM-CC
   Dmitry Ganyushin       : Spin-Orbit,Spin-Spin,Magnetic field MRCI
   Miquel Garcia          : C-PCM and meta-GGA Hessian, CC/C-PCM, Gaussian charge scheme
   Yang Guo               : DLPNO-NEVPT2, F12-NEVPT2, CIM, IAO-localization
   Andreas Hansen         : Spin unrestricted coupled pair/coupled cluster methods
   Benjamin Helmich-Paris : MC-RPA, TRAH-SCF, COSX integrals
   Lee Huntington         : MR-EOM, pCC
   Robert Izsak           : Overlap fitted RIJCOSX, COSX-SCS-MP3, EOM
   Marcus Kettner         : VPT2
   Christian Kollmar      : KDIIS, OOCD, Brueckner-CCSD(T), CCSD density, CASPT2, CASPT2-K
   Simone Kossmann        : Meta GGA functionals, TD-DFT gradient, OOMP2, MP2 Hessian
   Martin Krupicka        : Initial AUTO-CI
   Lucas Lang             : DCDCAS
   Marvin Lechner         : AUTO-CI (C++ implementation), FIC-MRCC
   Dagmar Lenk            : GEPOL surface, SMD
   Dimitrios Liakos       : Extrapolation schemes; Compound Job, initial MDCI parallelization
   Dimitrios Manganas     : Further ROCIS development; embedding schemes
   Dimitrios Pantazis     : SARC Basis sets
   Anastasios Papadopoulos: AUTO-CI, single reference methods and gradients
   Taras Petrenko         : DFT Hessian,TD-DFT gradient, ASA, ECA, R-Raman, ABS, FL, XAS/XES, NRVS
   Peter Pinski           : DLPNO-MP2, DLPNO-MP2 Gradient
   Christoph Reimann      : Effective Core Potentials
   Marius Retegan         : Local ZFS, SOC
   Christoph Riplinger    : Optimizer, TS searches, QM/MM, DLPNO-CCSD(T), (RO)-DLPNO pert. Triples
   Tobias Risthaus        : Range-separated hybrids, TD-DFT gradient, RPA, STAB
   Michael Roemelt        : Original ROCIS implementation
   Masaaki Saitow         : Open-shell DLPNO-CCSD energy and density
   Barbara Sandhoefer     : DKH picture change effects
   Avijit Sen             : IP-ROCIS
   Kantharuban Sivalingam : CASSCF convergence, NEVPT2, FIC-MRCI
   Bernardo de Souza      : ESD, SOC TD-DFT
   Georgi Stoychev        : AutoAux, RI-MP2 NMR, DLPNO-MP2 response
   Willem Van den Heuvel  : Paramagnetic NMR
   Boris Wezisla          : Elementary symmetry handling
   Frank Wennmohs         : Technical directorship


 We gratefully acknowledge several colleagues who have allowed us to
 interface, adapt or use parts of their codes:
   Stefan Grimme, W. Hujo, H. Kruse, P. Pracht,  : VdW corrections, initial TS optimization,
                  C. Bannwarth, S. Ehlert          DFT functionals, gCP, sTDA/sTD-DF
   Ed Valeev, F. Pavosevic, A. Kumar             : LibInt (2-el integral package), F12 methods
   Garnet Chan, S. Sharma, J. Yang, R. Olivares  : DMRG
   Ulf Ekstrom                                   : XCFun DFT Library
   Mihaly Kallay                                 : mrcc  (arbitrary order and MRCC methods)
   Jiri Pittner, Ondrej Demel                    : Mk-CCSD
   Frank Weinhold                                : gennbo (NPA and NBO analysis)
   Christopher J. Cramer and Donald G. Truhlar   : smd solvation model
   Lars Goerigk                                  : TD-DFT with DH, B97 family of functionals
   V. Asgeirsson, H. Jonsson                     : NEB implementation
   FAccTs GmbH                                   : IRC, NEB, NEB-TS, DLPNO-Multilevel, CI-OPT
                                                   MM, QMMM, 2- and 3-layer-ONIOM, Crystal-QMMM,
                                                   LR-CPCM, SF, NACMEs, symmetry and pop. for TD-DFT,
                                                   nearIR, NL-DFT gradient (VV10), updates on ESD,
                                                   ML-optimized integration grids
   S Lehtola, MJT Oliveira, MAL Marques          : LibXC Library
   Liviu Ungur et al                             : ANISO software


 Your calculation uses the libint2 library for the computation of 2-el integrals
 For citations please refer to: http://libint.valeyev.net

 Your ORCA version has been built with support for libXC version: 5.1.0
 For citations please refer to: https://tddft.org/programs/libxc/

 This ORCA versions uses:
   CBLAS   interface :  Fast vector & matrix operations
   LAPACKE interface :  Fast linear algebra routines
   SCALAPACK package :  Parallel linear algebra routines
   Shared memory     :  Shared parallel matrices
   BLAS/LAPACK       :  OpenBLAS 0.3.15  USE64BITINT DYNAMIC_ARCH NO_AFFINITY Zen SINGLE_THREADED
        Core in use  :  Zen
   Copyright (c) 2011-2014, The OpenBLAS Project


Your calculation utilizes the atom-pairwise dispersion correction
based on tight binding partial charges (D4)
Cite in your paper:
E.Caldeweyher, C.Bannwarth, S.Grimme, J.Chem.Phys., (2017), 147, 034112.
E.Caldeweyher, S.Ehlert, A.Hansen, H.Neugebauer, S.Grimme, J.Chem.Phys., (2018), in progress.
   

================================================================================

----- Orbital basis set information -----
Your calculation utilizes the basis: def2-TZVP(-f)
   F. Weigend and R. Ahlrichs, Phys. Chem. Chem. Phys. 7, 3297 (2005).

----- AuxJ basis set information -----
Your calculation utilizes the auxiliary basis: def2/J
   F. Weigend, Phys. Chem. Chem. Phys. 8, 1057 (2006).

================================================================================
                                        WARNINGS
                       Please study these warnings very carefully!
================================================================================


WARNING: Geometry Optimization
  ===> : Switching off AutoStart
         For restart on a previous wavefunction, please use MOREAD

INFO   : the flag for use of the SHARK integral package has been found!

================================================================================
                                       INPUT FILE
================================================================================
NAME = S1_def_pyrazine_Nickel.inp
|  1> !UKS B3LYP DEF2-TZVP(-F) RIJCOSX D4 TIGHTSCF CPCM(CH2Cl2) OPT FREQ
|  2> 
|  3> %maxcore  62000
|  4> %PAL 
|  5>    NPROCS 4
|  6> END
|  7> 
|  8> # Ni (II) (tppz)2 2+
|  9> * xyz 2 1
| 10> Ni    0.000000000000      0.000000000000      0.000000000000
| 11> N     0.000000000000      0.000000000000      2.011022000000
| 12> N     0.000000000000      0.000000000000      4.702926000000
| 13> C     1.174369000000     -0.215294000000      2.643544000000
| 14> C     4.405654000000      0.000000000000     -0.110452000000
| 15> C     3.684074000000     -0.044741000000      2.200852000000
| 16> H     3.912862000000     -0.002551000000      3.257031000000
| 17> C     4.717184000000      0.037506000000      1.256291000000
| 18> C     1.110457000000     -0.410226000000      4.055057000000
| 19> N     2.063178000000     -0.158693000000      0.420033000000
| 20> C     3.673877000000     -2.840777000000      5.016475000000
| 21> N     2.771594000000     -2.148598000000      4.286727000000
| 22> C     2.376430000000     -0.715401000000      6.206438000000
| 23> H     1.842372000000      0.124782000000      6.635750000000
| 24> C     2.358048000000     -0.166101000000      1.755830000000
| 25> C     3.984234000000     -2.518433000000      6.350055000000
| 26> H     4.720227000000     -3.102434000000      6.892744000000
| 27> C     3.058410000000     -0.087292000000     -0.487867000000
| 28> C     2.135342000000     -1.099029000000      4.874665000000
| 29> C     3.321910000000     -1.436726000000      6.952325000000
| 30> H     3.536128000000     -1.159722000000      7.979882000000
| 31> H     5.746697000000      0.131732000000      1.586308000000
| 32> H     4.157356000000     -3.676508000000      4.519278000000
| 33> H     5.177830000000      0.053106000000     -0.869841000000
| 34> H     2.770621000000     -0.092357000000     -1.532215000000
| 35> C    -1.174369000000      0.215294000000      2.643544000000
| 36> C    -4.405654000000      0.000000000000     -0.110452000000
| 37> C    -3.684074000000      0.044741000000      2.200852000000
| 38> H    -3.912862000000      0.002551000000      3.257031000000
| 39> C    -4.717184000000     -0.037506000000      1.256291000000
| 40> C    -1.110457000000      0.410226000000      4.055057000000
| 41> N    -2.063178000000      0.158693000000      0.420033000000
| 42> C    -3.673877000000      2.840777000000      5.016475000000
| 43> N    -2.771594000000      2.148598000000      4.286727000000
| 44> C    -2.376430000000      0.715401000000      6.206438000000
| 45> H    -1.842372000000     -0.124782000000      6.635750000000
| 46> C    -2.358048000000      0.166101000000      1.755830000000
| 47> C    -3.984234000000      2.518433000000      6.350055000000
| 48> H    -4.720227000000      3.102434000000      6.892744000000
| 49> C    -3.058410000000      0.087292000000     -0.487867000000
| 50> C    -2.135342000000      1.099029000000      4.874665000000
| 51> C    -3.321910000000      1.436726000000      6.952325000000
| 52> H    -3.536128000000      1.159722000000      7.979882000000
| 53> H    -5.746697000000     -0.131732000000      1.586308000000
| 54> H    -4.157356000000      3.676508000000      4.519278000000
| 55> H    -5.177830000000     -0.053106000000     -0.869841000000
| 56> H    -2.770621000000      0.092357000000     -1.532215000000
| 57> N     0.000000000000      0.000000000000     -2.011022000000
| 58> N     0.000000000000      0.000000000000     -4.702926000000
| 59> C    -0.215294000000     -1.174369000000     -2.643544000000
| 60> C     0.000000000000     -4.405654000000      0.110452000000
| 61> C    -0.044741000000     -3.684074000000     -2.200852000000
| 62> H    -0.002551000000     -3.912862000000     -3.257031000000
| 63> C     0.037506000000     -4.717184000000     -1.256291000000
| 64> C    -0.410226000000     -1.110457000000     -4.055057000000
| 65> N    -0.158693000000     -2.063178000000     -0.420033000000
| 66> C    -2.840777000000     -3.673877000000     -5.016475000000
| 67> N    -2.148598000000     -2.771594000000     -4.286727000000
| 68> C    -0.715401000000     -2.376430000000     -6.206438000000
| 69> H     0.124782000000     -1.842372000000     -6.635750000000
| 70> C    -0.166101000000     -2.358048000000     -1.755830000000
| 71> C    -2.518433000000     -3.984234000000     -6.350055000000
| 72> H    -3.102434000000     -4.720227000000     -6.892744000000
| 73> C    -0.087292000000     -3.058410000000      0.487867000000
| 74> C    -1.099029000000     -2.135342000000     -4.874665000000
| 75> C    -1.436726000000     -3.321910000000     -6.952325000000
| 76> H    -1.159722000000     -3.536128000000     -7.979882000000
| 77> H     0.131732000000     -5.746697000000     -1.586308000000
| 78> H    -3.676508000000     -4.157356000000     -4.519278000000
| 79> H     0.053106000000     -5.177830000000      0.869841000000
| 80> H    -0.092357000000     -2.770621000000      1.532215000000
| 81> C     0.215294000000      1.174369000000     -2.643544000000
| 82> C     0.000000000000      4.405654000000      0.110452000000
| 83> C     0.044741000000      3.684074000000     -2.200852000000
| 84> H     0.002551000000      3.912862000000     -3.257031000000
| 85> C    -0.037506000000      4.717184000000     -1.256291000000
| 86> C     0.410226000000      1.110457000000     -4.055057000000
| 87> N     0.158693000000      2.063178000000     -0.420033000000
| 88> C     2.840777000000      3.673877000000     -5.016475000000
| 89> N     2.148598000000      2.771594000000     -4.286727000000
| 90> C     0.715401000000      2.376430000000     -6.206438000000
| 91> H    -0.124782000000      1.842372000000     -6.635750000000
| 92> C     0.166101000000      2.358048000000     -1.755830000000
| 93> C     2.518433000000      3.984234000000     -6.350055000000
| 94> H     3.102434000000      4.720227000000     -6.892744000000
| 95> C     0.087292000000      3.058410000000      0.487867000000
| 96> C     1.099029000000      2.135342000000     -4.874665000000
| 97> C     1.436726000000      3.321910000000     -6.952325000000
| 98> H     1.159722000000      3.536128000000     -7.979882000000
| 99> H    -0.131732000000      5.746697000000     -1.586308000000
|100> H     3.676508000000      4.157356000000     -4.519278000000
|101> H    -0.053106000000      5.177830000000      0.869841000000
|102> H     0.092357000000      2.770621000000      1.532215000000
|103> *
|104> 
|105> 
|106> 
|107>                          ****END OF INPUT****
================================================================================

                       *****************************
                       * Geometry Optimization Run *
                       *****************************

Geometry optimization settings:
Update method            Update   .... BFGS
Choice of coordinates    CoordSys .... Z-matrix Internals
Initial Hessian          InHess   .... Almoef's Model

Convergence Tolerances:
Energy Change            TolE     ....  5.0000e-06 Eh
Max. Gradient            TolMAXG  ....  3.0000e-04 Eh/bohr
RMS Gradient             TolRMSG  ....  1.0000e-04 Eh/bohr
Max. Displacement        TolMAXD  ....  4.0000e-03 bohr
RMS Displacement         TolRMSD  ....  2.0000e-03 bohr
Strict Convergence                ....  False
------------------------------------------------------------------------------
                        ORCA OPTIMIZATION COORDINATE SETUP
------------------------------------------------------------------------------

The optimization will be done in new redundant internal coordinates
Making redundant internal coordinates   ...  (new redundants) done
Evaluating the initial hessian          ...  (Almloef) done
Evaluating the coordinates              ...  done
Calculating the B-matrix                .... done
Calculating the G-matrix                .... done
Diagonalizing the G-matrix              .... done
Small eigenvalue found = 2.485e-03
Small eigenvalue found = 2.485e-03
Small eigenvalue found = 2.548e-03
Small eigenvalue found = 3.083e-03
Small eigenvalue found = 4.233e-03
Small eigenvalue found = 7.845e-03
Small eigenvalue found = 7.845e-03
Small eigenvalue found = 9.031e-03
Small eigenvalue found = 1.411e-02
Small eigenvalue found = 1.902e-02
Small eigenvalue found = 2.037e-02
Small eigenvalue found = 2.037e-02
Small eigenvalue found = 2.151e-02
Small eigenvalue found = 2.659e-02
The first mode is                       ....  323
The number of degrees of freedom        ....  273

    -----------------------------------------------------------------
                    Redundant Internal Coordinates


    -----------------------------------------------------------------
         Definition                    Initial Value    Approx d2E/dq
    -----------------------------------------------------------------
      1. B(N   1,Ni  0)                  2.0110         0.578361   
      2. B(C   3,N   1)                  1.3511         0.645468   
      3. B(H   6,C   5)                  1.0815         0.371524   
      4. B(C   7,C   4)                  1.4023         0.597194   
      5. B(C   7,C   5)                  1.4022         0.597325   
      6. B(C   8,C   3)                  1.4263         0.546710   
      7. B(C   8,N   2)                  1.3495         0.649382   
      8. B(N   9,Ni  0)                  2.1115         0.399887   
      9. B(N  11,C  10)                  1.3512         0.645310   
     10. B(H  13,C  12)                  1.0842         0.367890   
     11. B(C  14,C   5)                  1.4040         0.593551   
     12. B(C  14,C   3)                  1.4804         0.448258   
     13. B(C  14,N   9)                  1.3680         0.606756   
     14. B(C  15,C  10)                  1.4066         0.587727   
     15. B(H  16,C  15)                  1.0850         0.366757   
     16. B(C  17,C   4)                  1.4018         0.598224   
     17. B(C  17,N   9)                  1.3490         0.650503   
     18. B(C  18,C  12)                  1.4067         0.587534   
     19. B(C  18,N  11)                  1.3609         0.622706   
     20. B(C  18,C   8)                  1.4821         0.445463   
     21. B(C  19,C  15)                  1.4041         0.593261   
     22. B(C  19,C  12)                  1.4038         0.593962   
     23. B(H  20,C  19)                  1.0856         0.365989   
     24. B(H  21,C   7)                  1.0852         0.366489   
     25. B(H  22,C  10)                  1.0860         0.365426   
     26. B(H  23,C   4)                  1.0843         0.367694   
     27. B(H  24,C  17)                  1.0833         0.369091   
     28. B(C  25,N   1)                  1.3511         0.645468   
     29. B(H  28,C  27)                  1.0815         0.371524   
     30. B(C  29,C  27)                  1.4022         0.597325   
     31. B(C  29,C  26)                  1.4023         0.597194   
     32. B(C  30,C  25)                  1.4263         0.546710   
     33. B(C  30,N   2)                  1.3495         0.649382   
     34. B(N  31,Ni  0)                  2.1115         0.399887   
     35. B(N  33,C  32)                  1.3512         0.645310   
     36. B(H  35,C  34)                  1.0842         0.367890   
     37. B(C  36,N  31)                  1.3680         0.606756   
     38. B(C  36,C  27)                  1.4040         0.593551   
     39. B(C  36,C  25)                  1.4804         0.448258   
     40. B(C  37,C  32)                  1.4066         0.587727   
     41. B(H  38,C  37)                  1.0850         0.366757   
     42. B(C  39,N  31)                  1.3490         0.650503   
     43. B(C  39,C  26)                  1.4018         0.598224   
     44. B(C  40,C  34)                  1.4067         0.587534   
     45. B(C  40,N  33)                  1.3609         0.622706   
     46. B(C  40,C  30)                  1.4821         0.445463   
     47. B(C  41,C  37)                  1.4041         0.593261   
     48. B(C  41,C  34)                  1.4038         0.593962   
     49. B(H  42,C  41)                  1.0856         0.365989   
     50. B(H  43,C  29)                  1.0852         0.366489   
     51. B(H  44,C  32)                  1.0860         0.365426   
     52. B(H  45,C  26)                  1.0843         0.367694   
     53. B(H  46,C  39)                  1.0833         0.369091   
     54. B(N  47,Ni  0)                  2.0110         0.578361   
     55. B(C  49,N  47)                  1.3511         0.645468   
     56. B(H  52,C  51)                  1.0815         0.371524   
     57. B(C  53,C  51)                  1.4022         0.597325   
     58. B(C  53,C  50)                  1.4023         0.597194   
     59. B(C  54,C  49)                  1.4263         0.546710   
     60. B(C  54,N  48)                  1.3495         0.649382   
     61. B(N  55,Ni  0)                  2.1115         0.399887   
     62. B(N  57,C  56)                  1.3512         0.645310   
     63. B(H  59,C  58)                  1.0842         0.367890   
     64. B(C  60,N  55)                  1.3680         0.606756   
     65. B(C  60,C  51)                  1.4040         0.593551   
     66. B(C  60,C  49)                  1.4804         0.448258   
     67. B(C  61,C  56)                  1.4066         0.587727   
     68. B(H  62,C  61)                  1.0850         0.366757   
     69. B(C  63,N  55)                  1.3490         0.650503   
     70. B(C  63,C  50)                  1.4018         0.598224   
     71. B(C  64,C  58)                  1.4067         0.587534   
     72. B(C  64,N  57)                  1.3609         0.622706   
     73. B(C  64,C  54)                  1.4821         0.445463   
     74. B(C  65,C  61)                  1.4041         0.593261   
     75. B(C  65,C  58)                  1.4038         0.593962   
     76. B(H  66,C  65)                  1.0856         0.365989   
     77. B(H  67,C  53)                  1.0852         0.366489   
     78. B(H  68,C  56)                  1.0860         0.365426   
     79. B(H  69,C  50)                  1.0843         0.367694   
     80. B(H  70,C  63)                  1.0833         0.369091   
     81. B(C  71,N  47)                  1.3511         0.645468   
     82. B(H  74,C  73)                  1.0815         0.371524   
     83. B(C  75,C  73)                  1.4022         0.597325   
     84. B(C  75,C  72)                  1.4023         0.597194   
     85. B(C  76,C  71)                  1.4263         0.546710   
     86. B(C  76,N  48)                  1.3495         0.649382   
     87. B(N  77,Ni  0)                  2.1115         0.399887   
     88. B(N  79,C  78)                  1.3512         0.645310   
     89. B(H  81,C  80)                  1.0842         0.367890   
     90. B(C  82,N  77)                  1.3680         0.606756   
     91. B(C  82,C  73)                  1.4040         0.593551   
     92. B(C  82,C  71)                  1.4804         0.448258   
     93. B(C  83,C  78)                  1.4066         0.587727   
     94. B(H  84,C  83)                  1.0850         0.366757   
     95. B(C  85,N  77)                  1.3490         0.650503   
     96. B(C  85,C  72)                  1.4018         0.598224   
     97. B(C  86,C  80)                  1.4067         0.587534   
     98. B(C  86,N  79)                  1.3609         0.622706   
     99. B(C  86,C  76)                  1.4821         0.445463   
    100. B(C  87,C  83)                  1.4041         0.593261   
    101. B(C  87,C  80)                  1.4038         0.593962   
    102. B(H  88,C  87)                  1.0856         0.365989   
    103. B(H  89,C  75)                  1.0852         0.366489   
    104. B(H  90,C  78)                  1.0860         0.365426   
    105. B(H  91,C  72)                  1.0843         0.367694   
    106. B(H  92,C  85)                  1.0833         0.369091   
    107. A(N  55,Ni  0,N  77)          157.0513         0.462008   
    108. A(N  31,Ni  0,N  77)           92.2679         0.462008   
    109. A(N   1,Ni  0,N  55)          101.4743         0.494501   
    110. A(N   1,Ni  0,N  77)          101.4743         0.494501   
    111. A(N   9,Ni  0,N  77)           92.2679         0.462008   
    112. A(N  31,Ni  0,N  47)          101.4743         0.494501   
    113. A(N   9,Ni  0,N  47)          101.4743         0.494501   
    114. A(N   1,Ni  0,N   9)           78.5257         0.494501   
    115. A(N   9,Ni  0,N  31)          157.0513         0.462008   
    116. A(N   1,Ni  0,N  31)           78.5257         0.494501   
    117. A(N  47,Ni  0,N  55)           78.5257         0.494501   
    118. A(N  47,Ni  0,N  77)           78.5257         0.494501   
    119. A(N  31,Ni  0,N  55)           92.2679         0.462008   
    120. A(N   9,Ni  0,N  55)           92.2679         0.462008   
    121. A(Ni  0,N   1,C   3)          117.9136         0.479348   
    122. A(Ni  0,N   1,C  25)          117.9136         0.479348   
    123. A(C   3,N   1,C  25)          124.1728         0.434652   
    124. A(C   8,N   2,C  30)          122.6184         0.435600   
    125. A(C   8,C   3,C  14)          129.3298         0.400640   
    126. A(N   1,C   3,C   8)          116.4939         0.424664   
    127. A(N   1,C   3,C  14)          114.1389         0.409914   
    128. A(C   7,C   4,C  17)          118.5271         0.428394   
    129. A(C  17,C   4,H  23)          119.9271         0.352021   
    130. A(C   7,C   4,H  23)          121.5381         0.351919   
    131. A(C   7,C   5,C  14)          119.1705         0.427809   
    132. A(H   6,C   5,C   7)          119.9796         0.352549   
    133. A(H   6,C   5,C  14)          120.8459         0.352172   
    134. A(C   5,C   7,H  21)          119.9463         0.351737   
    135. A(C   4,C   7,H  21)          120.6285         0.351723   
    136. A(C   4,C   7,C   5)          119.4251         0.428278   
    137. A(C   3,C   8,C  18)          125.4356         0.400199   
    138. A(N   2,C   8,C  18)          116.4113         0.409898   
    139. A(N   2,C   8,C   3)          118.0615         0.425124   
    140. A(Ni  0,N   9,C  17)          125.6625         0.448702   
    141. A(C  14,N   9,C  17)          119.8968         0.430447   
    142. A(Ni  0,N   9,C  14)          113.9086         0.443078   
    143. A(C  15,C  10,H  22)          120.8080         0.350603   
    144. A(N  11,C  10,H  22)          116.3746         0.353998   
    145. A(N  11,C  10,C  15)          122.8171         0.430187   
    146. A(C  10,N  11,C  18)          118.2906         0.431836   
    147. A(C  18,C  12,C  19)          118.5762         0.426596   
    148. A(H  13,C  12,C  19)          121.3040         0.351628   
    149. A(H  13,C  12,C  18)          120.1187         0.350982   
    150. A(C   5,C  14,N   9)          120.8396         0.426214   
    151. A(C   3,C  14,N   9)          114.4170         0.405453   
    152. A(C   3,C  14,C   5)          124.6098         0.406493   
    153. A(C  10,C  15,C  19)          118.6280         0.426531   
    154. A(H  16,C  15,C  19)          121.3383         0.351374   
    155. A(C  10,C  15,H  16)          120.0335         0.350818   
    156. A(C   4,C  17,N   9)          122.0810         0.432179   
    157. A(C   4,C  17,H  24)          121.0083         0.352247   
    158. A(N   9,C  17,H  24)          116.9090         0.355079   
    159. A(N  11,C  18,C  12)          122.6285         0.427419   
    160. A(C   8,C  18,C  12)          121.0181         0.405314   
    161. A(C   8,C  18,N  11)          116.2835         0.406866   
    162. A(C  12,C  19,C  15)          119.0556         0.427338   
    163. A(C  15,C  19,H  20)          120.6309         0.351250   
    164. A(C  12,C  19,H  20)          120.3136         0.351320   
    165. A(C  30,C  25,C  36)          129.3298         0.400640   
    166. A(N   1,C  25,C  36)          114.1389         0.409914   
    167. A(N   1,C  25,C  30)          116.4939         0.424664   
    168. A(C  29,C  26,C  39)          118.5271         0.428394   
    169. A(C  39,C  26,H  45)          119.9271         0.352021   
    170. A(C  29,C  26,H  45)          121.5381         0.351919   
    171. A(C  29,C  27,C  36)          119.1705         0.427809   
    172. A(H  28,C  27,C  36)          120.8459         0.352172   
    173. A(H  28,C  27,C  29)          119.9796         0.352549   
    174. A(C  26,C  29,C  27)          119.4251         0.428278   
    175. A(C  27,C  29,H  43)          119.9463         0.351737   
    176. A(C  26,C  29,H  43)          120.6285         0.351723   
    177. A(C  25,C  30,C  40)          125.4356         0.400199   
    178. A(N   2,C  30,C  25)          118.0615         0.425124   
    179. A(N   2,C  30,C  40)          116.4113         0.409898   
    180. A(Ni  0,N  31,C  39)          125.6625         0.448702   
    181. A(Ni  0,N  31,C  36)          113.9086         0.443078   
    182. A(C  36,N  31,C  39)          119.8968         0.430447   
    183. A(N  33,C  32,C  37)          122.8171         0.430187   
    184. A(C  37,C  32,H  44)          120.8080         0.350603   
    185. A(N  33,C  32,H  44)          116.3746         0.353998   
    186. A(C  32,N  33,C  40)          118.2906         0.431836   
    187. A(C  40,C  34,C  41)          118.5762         0.426596   
    188. A(H  35,C  34,C  41)          121.3040         0.351628   
    189. A(H  35,C  34,C  40)          120.1187         0.350982   
    190. A(C  27,C  36,N  31)          120.8396         0.426214   
    191. A(C  25,C  36,N  31)          114.4170         0.405453   
    192. A(C  25,C  36,C  27)          124.6098         0.406493   
    193. A(C  32,C  37,H  38)          120.0335         0.350818   
    194. A(H  38,C  37,C  41)          121.3383         0.351374   
    195. A(C  32,C  37,C  41)          118.6280         0.426531   
    196. A(N  31,C  39,H  46)          116.9090         0.355079   
    197. A(C  26,C  39,H  46)          121.0083         0.352247   
    198. A(C  26,C  39,N  31)          122.0810         0.432179   
    199. A(N  33,C  40,C  34)          122.6285         0.427419   
    200. A(C  30,C  40,C  34)          121.0181         0.405314   
    201. A(C  30,C  40,N  33)          116.2835         0.406866   
    202. A(C  37,C  41,H  42)          120.6309         0.351250   
    203. A(C  34,C  41,H  42)          120.3136         0.351320   
    204. A(C  34,C  41,C  37)          119.0556         0.427338   
    205. A(Ni  0,N  47,C  49)          117.9136         0.479348   
    206. A(C  49,N  47,C  71)          124.1728         0.434652   
    207. A(Ni  0,N  47,C  71)          117.9136         0.479348   
    208. A(C  54,N  48,C  76)          122.6184         0.435600   
    209. A(C  54,C  49,C  60)          129.3298         0.400640   
    210. A(N  47,C  49,C  60)          114.1389         0.409914   
    211. A(N  47,C  49,C  54)          116.4939         0.424664   
    212. A(C  53,C  50,C  63)          118.5271         0.428394   
    213. A(C  63,C  50,H  69)          119.9271         0.352021   
    214. A(C  53,C  50,H  69)          121.5381         0.351919   
    215. A(C  53,C  51,C  60)          119.1705         0.427809   
    216. A(H  52,C  51,C  60)          120.8459         0.352172   
    217. A(H  52,C  51,C  53)          119.9796         0.352549   
    218. A(C  50,C  53,H  67)          120.6285         0.351723   
    219. A(C  50,C  53,C  51)          119.4251         0.428278   
    220. A(C  51,C  53,H  67)          119.9463         0.351737   
    221. A(C  49,C  54,C  64)          125.4356         0.400199   
    222. A(N  48,C  54,C  64)          116.4113         0.409898   
    223. A(N  48,C  54,C  49)          118.0615         0.425124   
    224. A(C  60,N  55,C  63)          119.8968         0.430447   
    225. A(Ni  0,N  55,C  63)          125.6625         0.448702   
    226. A(Ni  0,N  55,C  60)          113.9086         0.443078   
    227. A(N  57,C  56,C  61)          122.8171         0.430187   
    228. A(C  61,C  56,H  68)          120.8080         0.350603   
    229. A(N  57,C  56,H  68)          116.3746         0.353998   
    230. A(C  56,N  57,C  64)          118.2906         0.431836   
    231. A(C  64,C  58,C  65)          118.5762         0.426596   
    232. A(H  59,C  58,C  65)          121.3040         0.351628   
    233. A(H  59,C  58,C  64)          120.1187         0.350982   
    234. A(C  51,C  60,N  55)          120.8396         0.426214   
    235. A(C  49,C  60,N  55)          114.4170         0.405453   
    236. A(C  49,C  60,C  51)          124.6098         0.406493   
    237. A(H  62,C  61,C  65)          121.3383         0.351374   
    238. A(C  56,C  61,C  65)          118.6280         0.426531   
    239. A(C  56,C  61,H  62)          120.0335         0.350818   
    240. A(C  50,C  63,N  55)          122.0810         0.432179   
    241. A(N  55,C  63,H  70)          116.9090         0.355079   
    242. A(C  50,C  63,H  70)          121.0083         0.352247   
    243. A(N  57,C  64,C  58)          122.6285         0.427419   
    244. A(C  54,C  64,C  58)          121.0181         0.405314   
    245. A(C  54,C  64,N  57)          116.2835         0.406866   
    246. A(C  61,C  65,H  66)          120.6309         0.351250   
    247. A(C  58,C  65,H  66)          120.3136         0.351320   
    248. A(C  58,C  65,C  61)          119.0556         0.427338   
    249. A(C  76,C  71,C  82)          129.3298         0.400640   
    250. A(N  47,C  71,C  82)          114.1389         0.409914   
    251. A(N  47,C  71,C  76)          116.4939         0.424664   
    252. A(C  85,C  72,H  91)          119.9271         0.352021   
    253. A(C  75,C  72,H  91)          121.5381         0.351919   
    254. A(C  75,C  72,C  85)          118.5271         0.428394   
    255. A(C  75,C  73,C  82)          119.1705         0.427809   
    256. A(H  74,C  73,C  82)          120.8459         0.352172   
    257. A(H  74,C  73,C  75)          119.9796         0.352549   
    258. A(C  73,C  75,H  89)          119.9463         0.351737   
    259. A(C  72,C  75,H  89)          120.6285         0.351723   
    260. A(C  72,C  75,C  73)          119.4251         0.428278   
    261. A(C  71,C  76,C  86)          125.4356         0.400199   
    262. A(N  48,C  76,C  86)          116.4113         0.409898   
    263. A(N  48,C  76,C  71)          118.0615         0.425124   
    264. A(C  82,N  77,C  85)          119.8968         0.430447   
    265. A(Ni  0,N  77,C  85)          125.6625         0.448702   
    266. A(Ni  0,N  77,C  82)          113.9086         0.443078   
    267. A(C  83,C  78,H  90)          120.8080         0.350603   
    268. A(N  79,C  78,H  90)          116.3746         0.353998   
    269. A(N  79,C  78,C  83)          122.8171         0.430187   
    270. A(C  78,N  79,C  86)          118.2906         0.431836   
    271. A(C  86,C  80,C  87)          118.5762         0.426596   
    272. A(H  81,C  80,C  87)          121.3040         0.351628   
    273. A(H  81,C  80,C  86)          120.1187         0.350982   
    274. A(C  73,C  82,N  77)          120.8396         0.426214   
    275. A(C  71,C  82,N  77)          114.4170         0.405453   
    276. A(C  71,C  82,C  73)          124.6098         0.406493   
    277. A(H  84,C  83,C  87)          121.3383         0.351374   
    278. A(C  78,C  83,C  87)          118.6280         0.426531   
    279. A(C  78,C  83,H  84)          120.0335         0.350818   
    280. A(N  77,C  85,H  92)          116.9090         0.355079   
    281. A(C  72,C  85,H  92)          121.0083         0.352247   
    282. A(C  72,C  85,N  77)          122.0810         0.432179   
    283. A(N  79,C  86,C  80)          122.6285         0.427419   
    284. A(C  76,C  86,C  80)          121.0181         0.405314   
    285. A(C  76,C  86,N  79)          116.2835         0.406866   
    286. A(C  83,C  87,H  88)          120.6309         0.351250   
    287. A(C  80,C  87,H  88)          120.3136         0.351320   
    288. A(C  80,C  87,C  83)          119.0556         0.427338   
    289. D(C  25,N   1,Ni  0,N  31)     -5.9902         0.003259   
    290. D(C   3,N   1,Ni  0,N  55)     84.0098         0.003259   
    291. D(C   3,N   1,Ni  0,N  77)    -95.9902         0.003259   
    292. D(C  25,N   1,Ni  0,N   9)    174.0098         0.003259   
    293. D(C  25,N   1,Ni  0,N  77)     84.0098         0.003259   
    294. D(C   3,N   1,Ni  0,N   9)     -5.9902         0.003259   
    295. D(C   3,N   1,Ni  0,N  31)    174.0098         0.003259   
    296. D(C  25,N   1,Ni  0,N  55)    -95.9902         0.003259   
    297. D(C  14,C   3,N   1,C  25)   -168.8246         0.033960   
    298. D(C   8,C   3,N   1,Ni  0)   -170.8380         0.033960   
    299. D(C   8,C   3,N   1,C  25)      9.1620         0.033960   
    300. D(C  14,C   3,N   1,Ni  0)     11.1754         0.033960   
    301. D(H  21,C   7,C   4,C  17)   -178.3490         0.024574   
    302. D(C   5,C   7,C   4,H  23)   -179.5085         0.024574   
    303. D(C   5,C   7,C   4,C  17)      1.4991         0.024574   
    304. D(H  21,C   7,C   5,H   6)      0.7169         0.024585   
    305. D(H  21,C   7,C   5,C  14)    179.9908         0.024585   
    306. D(H  21,C   7,C   4,H  23)      0.6434         0.024574   
    307. D(C   4,C   7,C   5,H   6)   -179.1322         0.024585   
    308. D(C   4,C   7,C   5,C  14)      0.1417         0.024585   
    309. D(C  18,C   8,C   3,N   1)    157.8393         0.020439   
    310. D(C  18,C   8,N   2,C  30)   -167.3378         0.031161   
    311. D(N   2,C   8,C   3,C  14)    159.0792         0.020439   
    312. D(N   2,C   8,C   3,N   1)    -18.5453         0.020439   
    313. D(C  18,C   8,C   3,C  14)    -24.5362         0.020439   
    314. D(C   3,C   8,N   2,C  30)      9.3736         0.031161   
    315. D(C  14,N   9,Ni  0,N  77)    100.5533         0.002343   
    316. D(C  14,N   9,Ni  0,N  55)   -101.9486         0.002343   
    317. D(C  14,N   9,Ni  0,N   1)     -0.6977         0.002343   
    318. D(C  14,N   9,Ni  0,N  31)     -0.6977         0.002343   
    319. D(C  14,N   9,Ni  0,N  47)    179.3023         0.002343   
    320. D(C  17,N   9,Ni  0,N   1)   -172.2651         0.002343   
    321. D(C  17,N   9,Ni  0,N  77)    -71.0142         0.002343   
    322. D(C  17,N   9,Ni  0,N  31)   -172.2651         0.002343   
    323. D(C  17,N   9,Ni  0,N  47)      7.7349         0.002343   
    324. D(C  17,N   9,Ni  0,N  55)     86.4840         0.002343   
    325. D(C  18,N  11,C  10,H  22)    179.5479         0.030740   
    326. D(C  18,N  11,C  10,C  15)     -0.2716         0.030740   
    327. D(C   3,C  14,N   9,C  17)    178.6289         0.029713   
    328. D(C   5,C  14,N   9,C  17)      2.6428         0.029713   
    329. D(C   5,C  14,N   9,Ni  0)   -169.4578         0.029713   
    330. D(N   9,C  14,C   5,C   7)     -2.2445         0.024259   
    331. D(N   9,C  14,C   5,H   6)    177.0229         0.024259   
    332. D(C   3,C  14,C   5,C   7)   -177.8029         0.024259   
    333. D(C   3,C  14,C   5,H   6)      1.4645         0.024259   
    334. D(C   3,C  14,N   9,Ni  0)      6.5283         0.029713   
    335. D(N   9,C  14,C   3,C   8)    170.8760         0.013699   
    336. D(N   9,C  14,C   3,N   1)    -11.4537         0.013699   
    337. D(C   5,C  14,C   3,N   1)    164.3586         0.013699   
    338. D(C   5,C  14,C   3,C   8)    -13.3117         0.013699   
    339. D(H  16,C  15,C  10,H  22)      0.4801         0.023762   
    340. D(C  19,C  15,C  10,H  22)   -179.3714         0.023762   
    341. D(C  19,C  15,C  10,N  11)      0.4403         0.023762   
    342. D(H  16,C  15,C  10,N  11)   -179.7082         0.023762   
    343. D(H  24,C  17,N   9,C  14)    179.5453         0.034538   
    344. D(C   4,C  17,N   9,C  14)     -0.9260         0.034538   
    345. D(C   4,C  17,N   9,Ni  0)    170.1780         0.034538   
    346. D(H  24,C  17,C   4,H  23)     -0.6493         0.024663   
    347. D(N   9,C  17,C   4,C   7)     -1.1498         0.024663   
    348. D(N   9,C  17,C   4,H  23)    179.8411         0.024663   
    349. D(H  24,C  17,C   4,C   7)    178.3598         0.024663   
    350. D(H  24,C  17,N   9,Ni  0)     -9.3507         0.034538   
    351. D(N  11,C  18,C   8,N   2)    141.6292         0.013532   
    352. D(N  11,C  18,C  12,C  19)      0.6941         0.023746   
    353. D(C   8,C  18,C  12,C  19)    177.5400         0.023746   
    354. D(C  12,C  18,N  11,C  10)     -0.3073         0.028467   
    355. D(C  12,C  18,C   8,C   3)    148.1537         0.013532   
    356. D(C  12,C  18,C   8,N   2)    -35.4084         0.013532   
    357. D(C   8,C  18,C  12,H  13)     -2.8339         0.023746   
    358. D(N  11,C  18,C  12,H  13)   -179.6798         0.023746   
    359. D(C   8,C  18,N  11,C  10)   -177.2928         0.028467   
    360. D(N  11,C  18,C   8,C   3)    -34.8087         0.013532   
    361. D(H  20,C  19,C  15,H  16)      0.1339         0.024234   
    362. D(H  20,C  19,C  15,C  10)    179.9833         0.024234   
    363. D(C  12,C  19,C  15,H  16)   -179.8833         0.024234   
    364. D(C  12,C  19,C  15,C  10)     -0.0338         0.024234   
    365. D(H  20,C  19,C  12,C  18)    179.4831         0.024295   
    366. D(C  15,C  19,C  12,C  18)     -0.4998         0.024295   
    367. D(H  20,C  19,C  12,H  13)     -0.1384         0.024295   
    368. D(C  15,C  19,C  12,H  13)    179.8787         0.024295   
    369. D(C  36,C  25,N   1,C   3)   -168.8246         0.033960   
    370. D(C  36,C  25,N   1,Ni  0)     11.1754         0.033960   
    371. D(C  30,C  25,N   1,C   3)      9.1620         0.033960   
    372. D(C  30,C  25,N   1,Ni  0)   -170.8380         0.033960   
    373. D(H  43,C  29,C  27,C  36)    179.9908         0.024585   
    374. D(H  43,C  29,C  27,H  28)      0.7169         0.024585   
    375. D(C  26,C  29,C  27,C  36)      0.1417         0.024585   
    376. D(C  26,C  29,C  27,H  28)   -179.1322         0.024585   
    377. D(H  43,C  29,C  26,H  45)      0.6434         0.024574   
    378. D(H  43,C  29,C  26,C  39)   -178.3490         0.024574   
    379. D(C  27,C  29,C  26,H  45)   -179.5085         0.024574   
    380. D(C  27,C  29,C  26,C  39)      1.4991         0.024574   
    381. D(C  40,C  30,C  25,C  36)    -24.5362         0.020439   
    382. D(C  40,C  30,C  25,N   1)    157.8393         0.020439   
    383. D(N   2,C  30,C  25,C  36)    159.0792         0.020439   
    384. D(N   2,C  30,C  25,N   1)    -18.5453         0.020439   
    385. D(C  40,C  30,N   2,C   8)   -167.3378         0.031161   
    386. D(C  25,C  30,N   2,C   8)      9.3736         0.031161   
    387. D(C  39,N  31,Ni  0,N  77)     86.4840         0.002343   
    388. D(C  39,N  31,Ni  0,N  47)      7.7349         0.002343   
    389. D(C  39,N  31,Ni  0,N   9)   -172.2651         0.002343   
    390. D(C  39,N  31,Ni  0,N   1)   -172.2651         0.002343   
    391. D(C  36,N  31,Ni  0,N  47)    179.3023         0.002343   
    392. D(C  36,N  31,Ni  0,N  55)    100.5533         0.002343   
    393. D(C  36,N  31,Ni  0,N   9)     -0.6977         0.002343   
    394. D(C  39,N  31,Ni  0,N  55)    -71.0142         0.002343   
    395. D(C  36,N  31,Ni  0,N   1)     -0.6977         0.002343   
    396. D(C  36,N  31,Ni  0,N  77)   -101.9486         0.002343   
    397. D(C  40,N  33,C  32,H  44)    179.5479         0.030740   
    398. D(C  40,N  33,C  32,C  37)     -0.2716         0.030740   
    399. D(C  27,C  36,N  31,C  39)      2.6428         0.029713   
    400. D(C  27,C  36,N  31,Ni  0)   -169.4578         0.029713   
    401. D(C  25,C  36,N  31,C  39)    178.6289         0.029713   
    402. D(C  25,C  36,N  31,Ni  0)      6.5283         0.029713   
    403. D(N  31,C  36,C  27,C  29)     -2.2445         0.024259   
    404. D(N  31,C  36,C  27,H  28)    177.0229         0.024259   
    405. D(C  25,C  36,C  27,C  29)   -177.8029         0.024259   
    406. D(C  25,C  36,C  27,H  28)      1.4645         0.024259   
    407. D(N  31,C  36,C  25,C  30)    170.8760         0.013699   
    408. D(N  31,C  36,C  25,N   1)    -11.4537         0.013699   
    409. D(C  27,C  36,C  25,C  30)    -13.3117         0.013699   
    410. D(C  27,C  36,C  25,N   1)    164.3586         0.013699   
    411. D(C  41,C  37,C  32,H  44)   -179.3714         0.023762   
    412. D(C  41,C  37,C  32,N  33)      0.4403         0.023762   
    413. D(H  38,C  37,C  32,H  44)      0.4801         0.023762   
    414. D(H  38,C  37,C  32,N  33)   -179.7082         0.023762   
    415. D(N  31,C  39,C  26,C  29)     -1.1498         0.024663   
    416. D(H  46,C  39,N  31,C  36)    179.5453         0.034538   
    417. D(H  46,C  39,N  31,Ni  0)     -9.3507         0.034538   
    418. D(C  26,C  39,N  31,C  36)     -0.9260         0.034538   
    419. D(C  26,C  39,N  31,Ni  0)    170.1780         0.034538   
    420. D(H  46,C  39,C  26,H  45)     -0.6493         0.024663   
    421. D(H  46,C  39,C  26,C  29)    178.3598         0.024663   
    422. D(N  31,C  39,C  26,H  45)    179.8411         0.024663   
    423. D(N  33,C  40,C  34,C  41)      0.6941         0.023746   
    424. D(C  30,C  40,C  34,C  41)    177.5400         0.023746   
    425. D(C  30,C  40,C  34,H  35)     -2.8339         0.023746   
    426. D(C  34,C  40,N  33,C  32)     -0.3073         0.028467   
    427. D(C  34,C  40,C  30,N   2)    -35.4084         0.013532   
    428. D(N  33,C  40,C  30,C  25)    -34.8087         0.013532   
    429. D(C  34,C  40,C  30,C  25)    148.1537         0.013532   
    430. D(N  33,C  40,C  34,H  35)   -179.6798         0.023746   
    431. D(N  33,C  40,C  30,N   2)    141.6292         0.013532   
    432. D(C  30,C  40,N  33,C  32)   -177.2928         0.028467   
    433. D(H  42,C  41,C  37,H  38)      0.1339         0.024234   
    434. D(H  42,C  41,C  37,C  32)    179.9833         0.024234   
    435. D(C  34,C  41,C  37,H  38)   -179.8833         0.024234   
    436. D(C  34,C  41,C  37,C  32)     -0.0338         0.024234   
    437. D(H  42,C  41,C  34,C  40)    179.4831         0.024295   
    438. D(H  42,C  41,C  34,H  35)     -0.1384         0.024295   
    439. D(C  37,C  41,C  34,C  40)     -0.4998         0.024295   
    440. D(C  37,C  41,C  34,H  35)    179.8787         0.024295   
    441. D(C  71,N  47,N   1,C  25)     90.0000         0.001500   
    442. D(C  71,N  47,N   1,C   3)    -90.0000         0.001500   
    443. D(C  49,N  47,N   1,C  25)    -90.0000         0.001500   
    444. D(C  49,N  47,N   1,C   3)     90.0000         0.001500   
    445. D(C  71,N  47,Ni  0,N  77)      5.9902         0.003259   
    446. D(C  71,N  47,Ni  0,N  55)   -174.0098         0.003259   
    447. D(C  71,N  47,Ni  0,N  31)     95.9902         0.003259   
    448. D(C  71,N  47,Ni  0,N   9)    -84.0098         0.003259   
    449. D(C  49,N  47,Ni  0,N  77)   -174.0098         0.003259   
    450. D(C  49,N  47,Ni  0,N  55)      5.9902         0.003259   
    451. D(C  49,N  47,Ni  0,N  31)    -84.0098         0.003259   
    452. D(C  49,N  47,Ni  0,N   9)     95.9902         0.003259   
    453. D(C  60,C  49,N  47,C  71)    168.8246         0.033960   
    454. D(C  60,C  49,N  47,Ni  0)    -11.1754         0.033960   
    455. D(C  54,C  49,N  47,C  71)     -9.1620         0.033960   
    456. D(C  54,C  49,N  47,Ni  0)    170.8380         0.033960   
    457. D(H  67,C  53,C  51,C  60)   -179.9908         0.024585   
    458. D(H  67,C  53,C  51,H  52)     -0.7169         0.024585   
    459. D(C  50,C  53,C  51,C  60)     -0.1417         0.024585   
    460. D(C  50,C  53,C  51,H  52)    179.1322         0.024585   
    461. D(H  67,C  53,C  50,H  69)     -0.6434         0.024574   
    462. D(H  67,C  53,C  50,C  63)    178.3490         0.024574   
    463. D(C  51,C  53,C  50,H  69)    179.5085         0.024574   
    464. D(C  51,C  53,C  50,C  63)     -1.4991         0.024574   
    465. D(C  64,C  54,C  49,C  60)     24.5362         0.020439   
    466. D(C  64,C  54,C  49,N  47)   -157.8393         0.020439   
    467. D(N  48,C  54,C  49,C  60)   -159.0792         0.020439   
    468. D(N  48,C  54,C  49,N  47)     18.5453         0.020439   
    469. D(C  64,C  54,N  48,C  76)    167.3378         0.031161   
    470. D(C  49,C  54,N  48,C  76)     -9.3736         0.031161   
    471. D(C  63,N  55,Ni  0,N  77)    172.2651         0.002343   
    472. D(C  63,N  55,Ni  0,N  31)    -86.4840         0.002343   
    473. D(C  63,N  55,Ni  0,N   9)     71.0142         0.002343   
    474. D(C  63,N  55,Ni  0,N   1)     -7.7349         0.002343   
    475. D(C  60,N  55,Ni  0,N  77)      0.6977         0.002343   
    476. D(C  60,N  55,Ni  0,N  47)      0.6977         0.002343   
    477. D(C  60,N  55,Ni  0,N  31)    101.9486         0.002343   
    478. D(C  63,N  55,Ni  0,N  47)    172.2651         0.002343   
    479. D(C  60,N  55,Ni  0,N   9)   -100.5533         0.002343   
    480. D(C  60,N  55,Ni  0,N   1)   -179.3023         0.002343   
    481. D(C  64,N  57,C  56,H  68)   -179.5479         0.030740   
    482. D(C  64,N  57,C  56,C  61)      0.2716         0.030740   
    483. D(C  51,C  60,N  55,C  63)     -2.6428         0.029713   
    484. D(C  51,C  60,N  55,Ni  0)    169.4578         0.029713   
    485. D(C  49,C  60,N  55,C  63)   -178.6289         0.029713   
    486. D(C  49,C  60,N  55,Ni  0)     -6.5283         0.029713   
    487. D(N  55,C  60,C  51,C  53)      2.2445         0.024259   
    488. D(N  55,C  60,C  51,H  52)   -177.0229         0.024259   
    489. D(C  49,C  60,C  51,C  53)    177.8029         0.024259   
    490. D(C  49,C  60,C  51,H  52)     -1.4645         0.024259   
    491. D(N  55,C  60,C  49,C  54)   -170.8760         0.013699   
    492. D(N  55,C  60,C  49,N  47)     11.4537         0.013699   
    493. D(C  51,C  60,C  49,C  54)     13.3117         0.013699   
    494. D(C  51,C  60,C  49,N  47)   -164.3586         0.013699   
    495. D(C  65,C  61,C  56,H  68)    179.3714         0.023762   
    496. D(C  65,C  61,C  56,N  57)     -0.4403         0.023762   
    497. D(H  62,C  61,C  56,H  68)     -0.4801         0.023762   
    498. D(H  62,C  61,C  56,N  57)    179.7082         0.023762   
    499. D(H  70,C  63,N  55,C  60)   -179.5453         0.034538   
    500. D(H  70,C  63,N  55,Ni  0)      9.3507         0.034538   
    501. D(C  50,C  63,N  55,C  60)      0.9260         0.034538   
    502. D(C  50,C  63,N  55,Ni  0)   -170.1780         0.034538   
    503. D(H  70,C  63,C  50,H  69)      0.6493         0.024663   
    504. D(H  70,C  63,C  50,C  53)   -178.3598         0.024663   
    505. D(N  55,C  63,C  50,H  69)   -179.8411         0.024663   
    506. D(N  55,C  63,C  50,C  53)      1.1498         0.024663   
    507. D(N  57,C  64,C  58,C  65)     -0.6941         0.023746   
    508. D(N  57,C  64,C  58,H  59)    179.6798         0.023746   
    509. D(C  54,C  64,C  58,C  65)   -177.5400         0.023746   
    510. D(C  54,C  64,C  58,H  59)      2.8339         0.023746   
    511. D(C  58,C  64,N  57,C  56)      0.3073         0.028467   
    512. D(C  54,C  64,N  57,C  56)    177.2928         0.028467   
    513. D(C  58,C  64,C  54,C  49)   -148.1537         0.013532   
    514. D(C  58,C  64,C  54,N  48)     35.4084         0.013532   
    515. D(N  57,C  64,C  54,C  49)     34.8087         0.013532   
    516. D(N  57,C  64,C  54,N  48)   -141.6292         0.013532   
    517. D(H  66,C  65,C  61,H  62)     -0.1339         0.024234   
    518. D(H  66,C  65,C  61,C  56)   -179.9833         0.024234   
    519. D(C  58,C  65,C  61,H  62)    179.8833         0.024234   
    520. D(C  58,C  65,C  61,C  56)      0.0338         0.024234   
    521. D(H  66,C  65,C  58,C  64)   -179.4831         0.024295   
    522. D(H  66,C  65,C  58,H  59)      0.1384         0.024295   
    523. D(C  61,C  65,C  58,C  64)      0.4998         0.024295   
    524. D(C  61,C  65,C  58,H  59)   -179.8787         0.024295   
    525. D(C  82,C  71,N  47,C  49)    168.8246         0.033960   
    526. D(C  82,C  71,N  47,Ni  0)    -11.1754         0.033960   
    527. D(C  76,C  71,N  47,C  49)     -9.1620         0.033960   
    528. D(C  76,C  71,N  47,Ni  0)    170.8380         0.033960   
    529. D(H  89,C  75,C  73,C  82)   -179.9908         0.024585   
    530. D(H  89,C  75,C  73,H  74)     -0.7169         0.024585   
    531. D(C  72,C  75,C  73,C  82)     -0.1417         0.024585   
    532. D(C  72,C  75,C  73,H  74)    179.1322         0.024585   
    533. D(H  89,C  75,C  72,H  91)     -0.6434         0.024574   
    534. D(H  89,C  75,C  72,C  85)    178.3490         0.024574   
    535. D(C  73,C  75,C  72,H  91)    179.5085         0.024574   
    536. D(C  73,C  75,C  72,C  85)     -1.4991         0.024574   
    537. D(C  86,C  76,C  71,C  82)     24.5362         0.020439   
    538. D(C  86,C  76,C  71,N  47)   -157.8393         0.020439   
    539. D(N  48,C  76,C  71,C  82)   -159.0792         0.020439   
    540. D(N  48,C  76,C  71,N  47)     18.5453         0.020439   
    541. D(C  86,C  76,N  48,C  54)    167.3378         0.031161   
    542. D(C  71,C  76,N  48,C  54)     -9.3736         0.031161   
    543. D(C  82,N  77,Ni  0,N   1)   -179.3023         0.002343   
    544. D(C  85,N  77,Ni  0,N  55)    172.2651         0.002343   
    545. D(C  85,N  77,Ni  0,N  47)    172.2651         0.002343   
    546. D(C  85,N  77,Ni  0,N  31)     71.0142         0.002343   
    547. D(C  85,N  77,Ni  0,N   9)    -86.4840         0.002343   
    548. D(C  85,N  77,Ni  0,N   1)     -7.7349         0.002343   
    549. D(C  82,N  77,Ni  0,N  55)      0.6977         0.002343   
    550. D(C  82,N  77,Ni  0,N  47)      0.6977         0.002343   
    551. D(C  82,N  77,Ni  0,N  31)   -100.5533         0.002343   
    552. D(C  82,N  77,Ni  0,N   9)    101.9486         0.002343   
    553. D(C  86,N  79,C  78,H  90)   -179.5479         0.030740   
    554. D(C  86,N  79,C  78,C  83)      0.2716         0.030740   
    555. D(C  73,C  82,N  77,C  85)     -2.6428         0.029713   
    556. D(C  73,C  82,N  77,Ni  0)    169.4578         0.029713   
    557. D(C  71,C  82,N  77,C  85)   -178.6289         0.029713   
    558. D(C  71,C  82,N  77,Ni  0)     -6.5283         0.029713   
    559. D(N  77,C  82,C  73,C  75)      2.2445         0.024259   
    560. D(N  77,C  82,C  73,H  74)   -177.0229         0.024259   
    561. D(C  71,C  82,C  73,C  75)    177.8029         0.024259   
    562. D(C  71,C  82,C  73,H  74)     -1.4645         0.024259   
    563. D(N  77,C  82,C  71,C  76)   -170.8760         0.013699   
    564. D(N  77,C  82,C  71,N  47)     11.4537         0.013699   
    565. D(C  73,C  82,C  71,C  76)     13.3117         0.013699   
    566. D(C  73,C  82,C  71,N  47)   -164.3586         0.013699   
    567. D(C  87,C  83,C  78,H  90)    179.3714         0.023762   
    568. D(C  87,C  83,C  78,N  79)     -0.4403         0.023762   
    569. D(H  84,C  83,C  78,H  90)     -0.4801         0.023762   
    570. D(H  84,C  83,C  78,N  79)    179.7082         0.023762   
    571. D(H  92,C  85,N  77,C  82)   -179.5453         0.034538   
    572. D(H  92,C  85,N  77,Ni  0)      9.3507         0.034538   
    573. D(C  72,C  85,N  77,C  82)      0.9260         0.034538   
    574. D(C  72,C  85,N  77,Ni  0)   -170.1780         0.034538   
    575. D(H  92,C  85,C  72,H  91)      0.6493         0.024663   
    576. D(H  92,C  85,C  72,C  75)   -178.3598         0.024663   
    577. D(N  77,C  85,C  72,H  91)   -179.8411         0.024663   
    578. D(N  77,C  85,C  72,C  75)      1.1498         0.024663   
    579. D(N  79,C  86,C  80,C  87)     -0.6941         0.023746   
    580. D(N  79,C  86,C  80,H  81)    179.6798         0.023746   
    581. D(C  76,C  86,C  80,C  87)   -177.5400         0.023746   
    582. D(C  76,C  86,C  80,H  81)      2.8339         0.023746   
    583. D(C  80,C  86,N  79,C  78)      0.3073         0.028467   
    584. D(C  76,C  86,N  79,C  78)    177.2928         0.028467   
    585. D(C  80,C  86,C  76,C  71)   -148.1537         0.013532   
    586. D(C  80,C  86,C  76,N  48)     35.4084         0.013532   
    587. D(N  79,C  86,C  76,C  71)     34.8087         0.013532   
    588. D(N  79,C  86,C  76,N  48)   -141.6292         0.013532   
    589. D(H  88,C  87,C  83,H  84)     -0.1339         0.024234   
    590. D(H  88,C  87,C  83,C  78)   -179.9833         0.024234   
    591. D(C  80,C  87,C  83,H  84)    179.8833         0.024234   
    592. D(C  80,C  87,C  83,C  78)      0.0338         0.024234   
    593. D(H  88,C  87,C  80,C  86)   -179.4831         0.024295   
    594. D(H  88,C  87,C  80,H  81)      0.1384         0.024295   
    595. D(C  83,C  87,C  80,C  86)      0.4998         0.024295   
    596. D(C  83,C  87,C  80,H  81)   -179.8787         0.024295   
    -----------------------------------------------------------------

Number of atoms                         .... 93
Number of degrees of freedom            .... 596

         *************************************************************
         *                GEOMETRY OPTIMIZATION CYCLE   1            *
         *************************************************************
---------------------------------
CARTESIAN COORDINATES (ANGSTROEM)
---------------------------------
  Ni     0.000000    0.000000    0.000000
  N      0.000000    0.000000    2.011022
  N      0.000000    0.000000    4.702926
  C      1.174369   -0.215294    2.643544
  C      4.405654    0.000000   -0.110452
  C      3.684074   -0.044741    2.200852
  H      3.912862   -0.002551    3.257031
  C      4.717184    0.037506    1.256291
  C      1.110457   -0.410226    4.055057
  N      2.063178   -0.158693    0.420033
  C      3.673877   -2.840777    5.016475
  N      2.771594   -2.148598    4.286727
  C      2.376430   -0.715401    6.206438
  H      1.842372    0.124782    6.635750
  C      2.358048   -0.166101    1.755830
  C      3.984234   -2.518433    6.350055
  H      4.720227   -3.102434    6.892744
  C      3.058410   -0.087292   -0.487867
  C      2.135342   -1.099029    4.874665
  C      3.321910   -1.436726    6.952325
  H      3.536128   -1.159722    7.979882
  H      5.746697    0.131732    1.586308
  H      4.157356   -3.676508    4.519278
  H      5.177830    0.053106   -0.869841
  H      2.770621   -0.092357   -1.532215
  C     -1.174369    0.215294    2.643544
  C     -4.405654    0.000000   -0.110452
  C     -3.684074    0.044741    2.200852
  H     -3.912862    0.002551    3.257031
  C     -4.717184   -0.037506    1.256291
  C     -1.110457    0.410226    4.055057
  N     -2.063178    0.158693    0.420033
  C     -3.673877    2.840777    5.016475
  N     -2.771594    2.148598    4.286727
  C     -2.376430    0.715401    6.206438
  H     -1.842372   -0.124782    6.635750
  C     -2.358048    0.166101    1.755830
  C     -3.984234    2.518433    6.350055
  H     -4.720227    3.102434    6.892744
  C     -3.058410    0.087292   -0.487867
  C     -2.135342    1.099029    4.874665
  C     -3.321910    1.436726    6.952325
  H     -3.536128    1.159722    7.979882
  H     -5.746697   -0.131732    1.586308
  H     -4.157356    3.676508    4.519278
  H     -5.177830   -0.053106   -0.869841
  H     -2.770621    0.092357   -1.532215
  N      0.000000    0.000000   -2.011022
  N      0.000000    0.000000   -4.702926
  C     -0.215294   -1.174369   -2.643544
  C      0.000000   -4.405654    0.110452
  C     -0.044741   -3.684074   -2.200852
  H     -0.002551   -3.912862   -3.257031
  C      0.037506   -4.717184   -1.256291
  C     -0.410226   -1.110457   -4.055057
  N     -0.158693   -2.063178   -0.420033
  C     -2.840777   -3.673877   -5.016475
  N     -2.148598   -2.771594   -4.286727
  C     -0.715401   -2.376430   -6.206438
  H      0.124782   -1.842372   -6.635750
  C     -0.166101   -2.358048   -1.755830
  C     -2.518433   -3.984234   -6.350055
  H     -3.102434   -4.720227   -6.892744
  C     -0.087292   -3.058410    0.487867
  C     -1.099029   -2.135342   -4.874665
  C     -1.436726   -3.321910   -6.952325
  H     -1.159722   -3.536128   -7.979882
  H      0.131732   -5.746697   -1.586308
  H     -3.676508   -4.157356   -4.519278
  H      0.053106   -5.177830    0.869841
  H     -0.092357   -2.770621    1.532215
  C      0.215294    1.174369   -2.643544
  C      0.000000    4.405654    0.110452
  C      0.044741    3.684074   -2.200852
  H      0.002551    3.912862   -3.257031
  C     -0.037506    4.717184   -1.256291
  C      0.410226    1.110457   -4.055057
  N      0.158693    2.063178   -0.420033
  C      2.840777    3.673877   -5.016475
  N      2.148598    2.771594   -4.286727
  C      0.715401    2.376430   -6.206438
  H     -0.124782    1.842372   -6.635750
  C      0.166101    2.358048   -1.755830
  C      2.518433    3.984234   -6.350055
  H      3.102434    4.720227   -6.892744
  C      0.087292    3.058410    0.487867
  C      1.099029    2.135342   -4.874665
  C      1.436726    3.321910   -6.952325
  H      1.159722    3.536128   -7.979882
  H     -0.131732    5.746697   -1.586308
  H      3.676508    4.157356   -4.519278
  H     -0.053106    5.177830    0.869841
  H      0.092357    2.770621    1.532215

----------------------------
CARTESIAN COORDINATES (A.U.)
----------------------------
  NO LB      ZA    FRAG     MASS         X           Y           Z
   0 Ni   28.0000    0    58.700    0.000000    0.000000    0.000000
   1 N     7.0000    0    14.007    0.000000    0.000000    3.800281
   2 N     7.0000    0    14.007    0.000000    0.000000    8.887242
   3 C     6.0000    0    12.011    2.219236   -0.406847    4.995574
   4 C     6.0000    0    12.011    8.325480    0.000000   -0.208724
   5 C     6.0000    0    12.011    6.961891   -0.084548    4.159008
   6 H     1.0000    0     1.008    7.394238   -0.004821    6.154897
   7 C     6.0000    0    12.011    8.914186    0.070876    2.374046
   8 C     6.0000    0    12.011    2.098460   -0.775215    7.662947
   9 N     7.0000    0    14.007    3.898841   -0.299886    0.793747
  10 C     6.0000    0    12.011    6.942621   -5.368291    9.479764
  11 N     7.0000    0    14.007    5.237554   -4.060262    8.100740
  12 C     6.0000    0    12.011    4.490802   -1.351912   11.728468
  13 H     1.0000    0     1.008    3.481579    0.235804   12.539750
  14 C     6.0000    0    12.011    4.456065   -0.313885    3.318038
  15 C     6.0000    0    12.011    7.529111   -4.759149   11.999865
  16 H     1.0000    0     1.008    8.919936   -5.862751   13.025398
  17 C     6.0000    0    12.011    5.779557   -0.164958   -0.921935
  18 C     6.0000    0    12.011    4.035212   -2.076864    9.211782
  19 C     6.0000    0    12.011    6.277500   -2.715019   13.137990
  20 H     1.0000    0     1.008    6.682313   -2.191557   15.079792
  21 H     1.0000    0     1.008   10.859684    0.248937    2.997688
  22 H     1.0000    0     1.008    7.856264   -6.947593    8.540198
  23 H     1.0000    0     1.008    9.784681    0.100356   -1.643761
  24 H     1.0000    0     1.008    5.235715   -0.174529   -2.895467
  25 C     6.0000    0    12.011   -2.219236    0.406847    4.995574
  26 C     6.0000    0    12.011   -8.325480    0.000000   -0.208724
  27 C     6.0000    0    12.011   -6.961891    0.084548    4.159008
  28 H     1.0000    0     1.008   -7.394238    0.004821    6.154897
  29 C     6.0000    0    12.011   -8.914186   -0.070876    2.374046
  30 C     6.0000    0    12.011   -2.098460    0.775215    7.662947
  31 N     7.0000    0    14.007   -3.898841    0.299886    0.793747
  32 C     6.0000    0    12.011   -6.942621    5.368291    9.479764
  33 N     7.0000    0    14.007   -5.237554    4.060262    8.100740
  34 C     6.0000    0    12.011   -4.490802    1.351912   11.728468
  35 H     1.0000    0     1.008   -3.481579   -0.235804   12.539750
  36 C     6.0000    0    12.011   -4.456065    0.313885    3.318038
  37 C     6.0000    0    12.011   -7.529111    4.759149   11.999865
  38 H     1.0000    0     1.008   -8.919936    5.862751   13.025398
  39 C     6.0000    0    12.011   -5.779557    0.164958   -0.921935
  40 C     6.0000    0    12.011   -4.035212    2.076864    9.211782
  41 C     6.0000    0    12.011   -6.277500    2.715019   13.137990
  42 H     1.0000    0     1.008   -6.682313    2.191557   15.079792
  43 H     1.0000    0     1.008  -10.859684   -0.248937    2.997688
  44 H     1.0000    0     1.008   -7.856264    6.947593    8.540198
  45 H     1.0000    0     1.008   -9.784681   -0.100356   -1.643761
  46 H     1.0000    0     1.008   -5.235715    0.174529   -2.895467
  47 N     7.0000    0    14.007    0.000000    0.000000   -3.800281
  48 N     7.0000    0    14.007    0.000000    0.000000   -8.887242
  49 C     6.0000    0    12.011   -0.406847   -2.219236   -4.995574
  50 C     6.0000    0    12.011    0.000000   -8.325480    0.208724
  51 C     6.0000    0    12.011   -0.084548   -6.961891   -4.159008
  52 H     1.0000    0     1.008   -0.004821   -7.394238   -6.154897
  53 C     6.0000    0    12.011    0.070876   -8.914186   -2.374046
  54 C     6.0000    0    12.011   -0.775215   -2.098460   -7.662947
  55 N     7.0000    0    14.007   -0.299886   -3.898841   -0.793747
  56 C     6.0000    0    12.011   -5.368291   -6.942621   -9.479764
  57 N     7.0000    0    14.007   -4.060262   -5.237554   -8.100740
  58 C     6.0000    0    12.011   -1.351912   -4.490802  -11.728468
  59 H     1.0000    0     1.008    0.235804   -3.481579  -12.539750
  60 C     6.0000    0    12.011   -0.313885   -4.456065   -3.318038
  61 C     6.0000    0    12.011   -4.759149   -7.529111  -11.999865
  62 H     1.0000    0     1.008   -5.862751   -8.919936  -13.025398
  63 C     6.0000    0    12.011   -0.164958   -5.779557    0.921935
  64 C     6.0000    0    12.011   -2.076864   -4.035212   -9.211782
  65 C     6.0000    0    12.011   -2.715019   -6.277500  -13.137990
  66 H     1.0000    0     1.008   -2.191557   -6.682313  -15.079792
  67 H     1.0000    0     1.008    0.248937  -10.859684   -2.997688
  68 H     1.0000    0     1.008   -6.947593   -7.856264   -8.540198
  69 H     1.0000    0     1.008    0.100356   -9.784681    1.643761
  70 H     1.0000    0     1.008   -0.174529   -5.235715    2.895467
  71 C     6.0000    0    12.011    0.406847    2.219236   -4.995574
  72 C     6.0000    0    12.011    0.000000    8.325480    0.208724
  73 C     6.0000    0    12.011    0.084548    6.961891   -4.159008
  74 H     1.0000    0     1.008    0.004821    7.394238   -6.154897
  75 C     6.0000    0    12.011   -0.070876    8.914186   -2.374046
  76 C     6.0000    0    12.011    0.775215    2.098460   -7.662947
  77 N     7.0000    0    14.007    0.299886    3.898841   -0.793747
  78 C     6.0000    0    12.011    5.368291    6.942621   -9.479764
  79 N     7.0000    0    14.007    4.060262    5.237554   -8.100740
  80 C     6.0000    0    12.011    1.351912    4.490802  -11.728468
  81 H     1.0000    0     1.008   -0.235804    3.481579  -12.539750
  82 C     6.0000    0    12.011    0.313885    4.456065   -3.318038
  83 C     6.0000    0    12.011    4.759149    7.529111  -11.999865
  84 H     1.0000    0     1.008    5.862751    8.919936  -13.025398
  85 C     6.0000    0    12.011    0.164958    5.779557    0.921935
  86 C     6.0000    0    12.011    2.076864    4.035212   -9.211782
  87 C     6.0000    0    12.011    2.715019    6.277500  -13.137990
  88 H     1.0000    0     1.008    2.191557    6.682313  -15.079792
  89 H     1.0000    0     1.008   -0.248937   10.859684   -2.997688
  90 H     1.0000    0     1.008    6.947593    7.856264   -8.540198
  91 H     1.0000    0     1.008   -0.100356    9.784681    1.643761
  92 H     1.0000    0     1.008    0.174529    5.235715    2.895467

--------------------------------
INTERNAL COORDINATES (ANGSTROEM)
--------------------------------
 Ni     0   0   0     0.000000000000     0.00000000     0.00000000
 N      1   0   0     2.011022000000     0.00000000     0.00000000
 N      2   1   0     2.691904000000   180.00000000     0.00000000
 C      2   1   3     1.351139569061   117.91360457     0.00000000
 C      4   2   1     4.251123172254   110.44531309    11.50424781
 C      5   4   2     2.421736078498    32.25277457   166.47606239
 H      6   5   4     1.081498046732   150.26200677   182.60994378
 C      6   5   4     1.402239752621    30.28818655   181.09438039
 C      3   2   4     1.349494113024    61.30918581   350.11324569
 N      1   2   4     2.111472152083    78.52566435   354.00981827
 C      7   6   5     3.347877513655   117.71433249   252.13806883
 N     11   7   6     1.351206321638    47.89849604   300.85864713
 C     12  11   7     2.428064774924    89.08613523   276.49927873
 H     13  12  11     1.084174439007   148.28464124   180.25612565
 C     10   1   2     1.367975445896   113.90858601   359.30233833
 C     11   7   6     1.406649472394   106.75131754   181.46323690
 H     16  11   7     1.085013462945   120.03354634   230.57327437
 C     10   1   2     1.349024553752   125.66253189   187.73490919
 C     12  11   7     1.360912482531   118.29059212   276.64926184
 C     13  12  11     1.403776906347    90.41129044     0.33884987
 H     20  13  12     1.085584614753   120.31355673   179.81070497
 H      8   6   5     1.085212779382   119.94630119   179.84909796
 H     11   7   6     1.086003270995   112.33458036    46.88384063
 H      5   4   2     1.084318991595   175.92296108   347.85286499
 H     18  10   1     1.083287084687   116.90904144   350.64934270
 C      2   1  10     1.351139569061   117.91360457   174.00981827
 C     26   2   1     4.251123172254   110.44531309    11.50424781
 C     27  26   2     2.421736078498    32.25277457   166.47606239
 H     28  27  26     1.081498046732   150.26200677   182.60994378
 C     28  27  26     1.402239752621    30.28818655   181.09438039
 C      3   2   4     1.349494113024    61.30918581   170.11324569
 N      1   2   4     2.111472152083    78.52566435   174.00981827
 C     29  28  27     3.347877513655   117.71433249   252.13806883
 N     33  29  28     1.351206321638    47.89849604   300.85864713
 C     34  33  29     2.428064774924    89.08613523   276.49927873
 H     35  34  33     1.084174439007   148.28464124   180.25612565
 C     32   1   2     1.367975445896   113.90858601   359.30233833
 C     33  29  28     1.406649472394   106.75131754   181.46323690
 H     38  33  29     1.085013462945   120.03354634   230.57327437
 C     32   1   2     1.349024553752   125.66253189   187.73490919
 C     34  33  29     1.360912482531   118.29059212   276.64926184
 C     35  34  33     1.403776906347    90.41129044     0.33884987
 H     42  35  34     1.085584614753   120.31355673   179.81070497
 H     30  28  27     1.085212779382   119.94630119   179.84909796
 H     33  29  28     1.086003270995   112.33458036    46.88384063
 H     27  26   2     1.084318991595   175.92296108   347.85286499
 H     40  32   1     1.083287084687   116.90904144   350.64934270
 N      1   2   4     2.011022000000   180.00000000     0.00000000
 N     48   1   2     2.691904000000   180.00000000     0.00000000
 C     48   1   2     1.351139569061   117.91360457     0.00000000
 C     50  48   1     4.251123172254   110.44531309   348.49575219
 C     51  50  48     2.421736078498    32.25277457   193.52393761
 H     52  51  50     1.081498046732   150.26200677   177.39005622
 C     52  51  50     1.402239752621    30.28818655   178.90561961
 C     49  48  50     1.349494113024    61.30918581     9.88675431
 N      1   2   4     2.111472152083   101.47433565    84.00981827
 C     53  52  51     3.347877513655   117.71433249   107.86193117
 N     57  53  52     1.351206321638    47.89849604    59.14135287
 C     58  57  53     2.428064774924    89.08613523    83.50072127
 H     59  58  57     1.084174439007   148.28464124   179.74387435
 C     56   1   2     1.367975445896   113.90858601   180.69766167
 C     57  53  52     1.406649472394   106.75131754   178.53676310
 H     62  57  53     1.085013462945   120.03354634   129.42672563
 C     56   1   2     1.349024553752   125.66253189   352.26509081
 C     58  57  53     1.360912482531   118.29059212    83.35073816
 C     59  58  57     1.403776906347    90.41129044   359.66115013
 H     66  59  58     1.085584614753   120.31355673   180.18929503
 H     54  52  51     1.085212779382   119.94630119   180.15090204
 H     57  53  52     1.086003270995   112.33458036   313.11615937
 H     51  50  48     1.084318991595   175.92296108    12.14713501
 H     64  56   1     1.083287084687   116.90904144     9.35065730
 C     48   1   2     1.351139569061   117.91360457     0.00000000
 C     72  48   1     4.251123172254   110.44531309   348.49575219
 C     73  72  48     2.421736078498    32.25277457   193.52393761
 H     74  73  72     1.081498046732   150.26200677   177.39005622
 C     74  73  72     1.402239752621    30.28818655   178.90561961
 C     49  48  50     1.349494113024    61.30918581   189.88675431
 N      1   2   4     2.111472152083   101.47433565   264.00981827
 C     75  74  73     3.347877513655   117.71433249   107.86193117
 N     79  75  74     1.351206321638    47.89849604    59.14135287
 C     80  79  75     2.428064774924    89.08613523    83.50072127
 H     81  80  79     1.084174439007   148.28464124   179.74387435
 C     78   1   2     1.367975445896   113.90858601   180.69766167
 C     79  75  74     1.406649472394   106.75131754   178.53676310
 H     84  79  75     1.085013462945   120.03354634   129.42672563
 C     78   1   2     1.349024553752   125.66253189   352.26509081
 C     80  79  75     1.360912482531   118.29059212    83.35073816
 C     81  80  79     1.403776906347    90.41129044   359.66115013
 H     88  81  80     1.085584614753   120.31355673   180.18929503
 H     76  74  73     1.085212779382   119.94630119   180.15090204
 H     79  75  74     1.086003270995   112.33458036   313.11615937
 H     73  72  48     1.084318991595   175.92296108    12.14713501
 H     86  78   1     1.083287084687   116.90904144     9.35065730

---------------------------
INTERNAL COORDINATES (A.U.)
---------------------------
 Ni     0   0   0     0.000000000000     0.00000000     0.00000000
 N      1   0   0     3.800280829291     0.00000000     0.00000000
 N      2   1   0     5.086961338807   180.00000000     0.00000000
 C      2   1   3     2.553283754229   117.91360457     0.00000000
 C      4   2   1     8.033458557127   110.44531309    11.50424781
 C      5   4   2     4.576417956997    32.25277457   166.47606239
 H      6   5   4     2.043735122694   150.26200677   182.60994378
 C      6   5   4     2.649849106551    30.28818655   181.09438039
 C      3   2   4     2.550174292954    61.30918581   350.11324569
 N      1   2   4     3.990104106838    78.52566435   354.00981827
 C      7   6   5     6.326571630721   117.71433249   252.13806883
 N     11   7   6     2.553409898319    47.89849604   300.85864713
 C     12  11   7     4.588377460027    89.08613523   276.49927873
 H     13  12  11     2.048792771122   148.28464124   180.25612565
 C     10   1   2     2.585098950671   113.90858601   359.30233833
 C     11   7   6     2.658182269249   106.75131754   181.46323690
 H     16  11   7     2.050378296583   120.03354634   230.57327437
 C     10   1   2     2.549286954526   125.66253189   187.73490919
 C     12  11   7     2.571751884219   118.29059212   276.64926184
 C     13  12  11     2.652753906120    90.41129044     0.33884987
 H     20  13  12     2.051457617082   120.31355673   179.81070497
 H      8   6   5     2.050754950063   119.94630119   179.84909796
 H     11   7   6     2.052248762722   112.33458036    46.88384063
 H      5   4   2     2.049065935924   175.92296108   347.85286499
 H     18  10   1     2.047115914473   116.90904144   350.64934270
 C      2   1  10     2.553283754229   117.91360457   174.00981827
 C     26   2   1     8.033458557127   110.44531309    11.50424781
 C     27  26   2     4.576417956997    32.25277457   166.47606239
 H     28  27  26     2.043735122694   150.26200677   182.60994378
 C     28  27  26     2.649849106551    30.28818655   181.09438039
 C      3   2   4     2.550174292954    61.30918581   170.11324569
 N      1   2   4     3.990104106838    78.52566435   174.00981827
 C     29  28  27     6.326571630721   117.71433249   252.13806883
[...]
271:   3217.51   0.000167    0.85  0.000016  (-0.000435  0.004000 -0.000177)
272:   3217.51   0.000167    0.84  0.000016  (-0.003983 -0.000445 -0.000349)
273:   3217.55   0.000452    2.29  0.000044  (-0.000104  0.000110  0.006622)
274:   3217.56   0.000122    0.62  0.000012  (-0.000223 -0.000062  0.003438)
275:   3239.79   0.000026    0.13  0.000003  ( 0.001276 -0.000705  0.000631)
276:   3239.86   0.000023    0.12  0.000002  ( 0.001102 -0.000667 -0.000739)
277:   3239.96   0.000024    0.12  0.000002  (-0.000713 -0.001210 -0.000593)
278:   3240.08   0.000022    0.11  0.000002  (-0.000623 -0.001123  0.000692)

* The epsilon (eps) is given for a Dirac delta lineshape.
** The dipole moment derivative (T) already includes vibrational overlap.

The first frequency considered to be a vibration is 7
The total number of vibrations considered is 272


--------------------------
THERMOCHEMISTRY AT 298.15K
--------------------------

Temperature         ... 298.15 K
Pressure            ... 1.00 atm
Total Mass          ... 835.57 AMU

Throughout the following assumptions are being made:
  (1) The electronic state is orbitally nondegenerate
  (2) There are no thermally accessible electronically excited states
  (3) Hindered rotations indicated by low frequency modes are not
      treated as such but are treated as vibrations and this may
      cause some error
  (4) All equations used are the standard statistical mechanics
      equations for an ideal gas
  (5) All vibrations are strictly harmonic

freq.      10.76  E(vib)   ...       0.58 
freq.      15.23  E(vib)   ...       0.57 
freq.      15.32  E(vib)   ...       0.57 
freq.      26.34  E(vib)   ...       0.56 
freq.      35.25  E(vib)   ...       0.54 
freq.      35.76  E(vib)   ...       0.54 
freq.      35.79  E(vib)   ...       0.54 
freq.      44.64  E(vib)   ...       0.53 
freq.      49.34  E(vib)   ...       0.52 
freq.      51.74  E(vib)   ...       0.52 
freq.      51.75  E(vib)   ...       0.52 
freq.      55.36  E(vib)   ...       0.52 
freq.      59.39  E(vib)   ...       0.51 
freq.      59.44  E(vib)   ...       0.51 
freq.      66.35  E(vib)   ...       0.50 
freq.      71.19  E(vib)   ...       0.50 
freq.      71.32  E(vib)   ...       0.50 
freq.      93.15  E(vib)   ...       0.47 
freq.     105.17  E(vib)   ...       0.45 
freq.     109.10  E(vib)   ...       0.45 
freq.     116.10  E(vib)   ...       0.44 
freq.     116.44  E(vib)   ...       0.44 
freq.     116.96  E(vib)   ...       0.44 
freq.     140.70  E(vib)   ...       0.41 
freq.     155.84  E(vib)   ...       0.40 
freq.     160.89  E(vib)   ...       0.39 
freq.     160.91  E(vib)   ...       0.39 
freq.     185.99  E(vib)   ...       0.37 
freq.     186.08  E(vib)   ...       0.37 
freq.     198.74  E(vib)   ...       0.35 
freq.     210.98  E(vib)   ...       0.34 
freq.     222.11  E(vib)   ...       0.33 
freq.     222.25  E(vib)   ...       0.33 
freq.     230.71  E(vib)   ...       0.32 
freq.     230.84  E(vib)   ...       0.32 
freq.     230.96  E(vib)   ...       0.32 
freq.     247.52  E(vib)   ...       0.31 
freq.     254.79  E(vib)   ...       0.30 
freq.     272.43  E(vib)   ...       0.29 
freq.     272.51  E(vib)   ...       0.29 
freq.     283.78  E(vib)   ...       0.28 
freq.     293.93  E(vib)   ...       0.27 
freq.     313.13  E(vib)   ...       0.25 
freq.     313.16  E(vib)   ...       0.25 
freq.     339.39  E(vib)   ...       0.23 
freq.     347.52  E(vib)   ...       0.23 
freq.     351.70  E(vib)   ...       0.23 
freq.     351.72  E(vib)   ...       0.23 
freq.     404.61  E(vib)   ...       0.19 
freq.     407.19  E(vib)   ...       0.19 
freq.     414.35  E(vib)   ...       0.19 
freq.     414.41  E(vib)   ...       0.19 
freq.     414.77  E(vib)   ...       0.19 
freq.     417.44  E(vib)   ...       0.18 
freq.     424.23  E(vib)   ...       0.18 
freq.     424.66  E(vib)   ...       0.18 
freq.     424.81  E(vib)   ...       0.18 
freq.     430.39  E(vib)   ...       0.18 
freq.     465.21  E(vib)   ...       0.16 
freq.     465.33  E(vib)   ...       0.16 
freq.     482.74  E(vib)   ...       0.15 
freq.     484.20  E(vib)   ...       0.15 
freq.     502.47  E(vib)   ...       0.14 
freq.     502.52  E(vib)   ...       0.14 
freq.     513.72  E(vib)   ...       0.13 
freq.     513.82  E(vib)   ...       0.13 
freq.     545.71  E(vib)   ...       0.12 
freq.     545.73  E(vib)   ...       0.12 
freq.     580.92  E(vib)   ...       0.11 
freq.     582.50  E(vib)   ...       0.11 
freq.     591.97  E(vib)   ...       0.10 
freq.     592.00  E(vib)   ...       0.10 
freq.     634.45  E(vib)   ...       0.09 
freq.     634.46  E(vib)   ...       0.09 
freq.     636.77  E(vib)   ...       0.09 
freq.     637.91  E(vib)   ...       0.09 
freq.     638.03  E(vib)   ...       0.09 
freq.     654.02  E(vib)   ...       0.08 
freq.     654.03  E(vib)   ...       0.08 
freq.     675.59  E(vib)   ...       0.08 
freq.     675.60  E(vib)   ...       0.08 
freq.     675.94  E(vib)   ...       0.08 
freq.     685.36  E(vib)   ...       0.07 
freq.     685.38  E(vib)   ...       0.07 
freq.     690.33  E(vib)   ...       0.07 
freq.     695.94  E(vib)   ...       0.07 
freq.     721.97  E(vib)   ...       0.07 
freq.     723.10  E(vib)   ...       0.07 
freq.     731.59  E(vib)   ...       0.06 
freq.     732.38  E(vib)   ...       0.06 
freq.     756.91  E(vib)   ...       0.06 
freq.     757.02  E(vib)   ...       0.06 
freq.     761.95  E(vib)   ...       0.06 
freq.     762.00  E(vib)   ...       0.06 
freq.     762.07  E(vib)   ...       0.06 
freq.     762.08  E(vib)   ...       0.06 
freq.     763.44  E(vib)   ...       0.06 
freq.     765.18  E(vib)   ...       0.06 
freq.     768.87  E(vib)   ...       0.06 
freq.     769.00  E(vib)   ...       0.06 
freq.     780.03  E(vib)   ...       0.05 
freq.     782.97  E(vib)   ...       0.05 
freq.     796.93  E(vib)   ...       0.05 
freq.     796.98  E(vib)   ...       0.05 
freq.     809.62  E(vib)   ...       0.05 
freq.     811.95  E(vib)   ...       0.05 
freq.     819.61  E(vib)   ...       0.05 
freq.     819.65  E(vib)   ...       0.05 
freq.     829.97  E(vib)   ...       0.04 
freq.     830.33  E(vib)   ...       0.04 
freq.     854.67  E(vib)   ...       0.04 
freq.     854.75  E(vib)   ...       0.04 
freq.     919.99  E(vib)   ...       0.03 
freq.     920.11  E(vib)   ...       0.03 
freq.     920.20  E(vib)   ...       0.03 
freq.     920.32  E(vib)   ...       0.03 
freq.     921.36  E(vib)   ...       0.03 
freq.     921.43  E(vib)   ...       0.03 
freq.     921.48  E(vib)   ...       0.03 
freq.     921.58  E(vib)   ...       0.03 
freq.     936.55  E(vib)   ...       0.03 
freq.     936.57  E(vib)   ...       0.03 
freq.     992.77  E(vib)   ...       0.02 
freq.     993.23  E(vib)   ...       0.02 
freq.     993.26  E(vib)   ...       0.02 
freq.     993.47  E(vib)   ...       0.02 
freq.     994.78  E(vib)   ...       0.02 
freq.     994.80  E(vib)   ...       0.02 
freq.     995.02  E(vib)   ...       0.02 
freq.     995.04  E(vib)   ...       0.02 
freq.    1010.51  E(vib)   ...       0.02 
freq.    1014.38  E(vib)   ...       0.02 
freq.    1014.40  E(vib)   ...       0.02 
freq.    1015.48  E(vib)   ...       0.02 
freq.    1015.49  E(vib)   ...       0.02 
freq.    1025.62  E(vib)   ...       0.02 
freq.    1025.62  E(vib)   ...       0.02 
freq.    1025.66  E(vib)   ...       0.02 
freq.    1025.66  E(vib)   ...       0.02 
freq.    1026.50  E(vib)   ...       0.02 
freq.    1026.58  E(vib)   ...       0.02 
freq.    1026.67  E(vib)   ...       0.02 
freq.    1026.82  E(vib)   ...       0.02 
freq.    1030.68  E(vib)   ...       0.02 
freq.    1030.69  E(vib)   ...       0.02 
freq.    1057.05  E(vib)   ...       0.02 
freq.    1061.34  E(vib)   ...       0.02 
freq.    1062.48  E(vib)   ...       0.02 
freq.    1062.66  E(vib)   ...       0.02 
freq.    1068.50  E(vib)   ...       0.02 
freq.    1068.51  E(vib)   ...       0.02 
freq.    1070.41  E(vib)   ...       0.02 
freq.    1080.68  E(vib)   ...       0.02 
freq.    1080.71  E(vib)   ...       0.02 
freq.    1091.49  E(vib)   ...       0.02 
freq.    1096.98  E(vib)   ...       0.02 
freq.    1104.89  E(vib)   ...       0.02 
freq.    1105.72  E(vib)   ...       0.02 
freq.    1120.09  E(vib)   ...       0.01 
freq.    1120.09  E(vib)   ...       0.01 
freq.    1121.52  E(vib)   ...       0.01 
freq.    1122.11  E(vib)   ...       0.01 
freq.    1127.45  E(vib)   ...       0.01 
freq.    1127.53  E(vib)   ...       0.01 
freq.    1135.64  E(vib)   ...       0.01 
freq.    1140.58  E(vib)   ...       0.01 
freq.    1176.12  E(vib)   ...       0.01 
freq.    1176.13  E(vib)   ...       0.01 
freq.    1176.26  E(vib)   ...       0.01 
freq.    1176.27  E(vib)   ...       0.01 
freq.    1182.41  E(vib)   ...       0.01 
freq.    1182.47  E(vib)   ...       0.01 
freq.    1186.88  E(vib)   ...       0.01 
freq.    1186.94  E(vib)   ...       0.01 
freq.    1187.64  E(vib)   ...       0.01 
freq.    1187.87  E(vib)   ...       0.01 
freq.    1241.54  E(vib)   ...       0.01 
freq.    1241.61  E(vib)   ...       0.01 
freq.    1263.68  E(vib)   ...       0.01 
freq.    1267.15  E(vib)   ...       0.01 
freq.    1286.31  E(vib)   ...       0.01 
freq.    1286.34  E(vib)   ...       0.01 
freq.    1295.75  E(vib)   ...       0.01 
freq.    1296.35  E(vib)   ...       0.01 
freq.    1296.99  E(vib)   ...       0.01 
freq.    1297.00  E(vib)   ...       0.01 
freq.    1299.24  E(vib)   ...       0.01 
freq.    1301.26  E(vib)   ...       0.01 
freq.    1317.69  E(vib)   ...       0.01 
freq.    1320.62  E(vib)   ...       0.01 
freq.    1320.62  E(vib)   ...       0.01 
freq.    1321.84  E(vib)   ...       0.01 
freq.    1325.06  E(vib)   ...       0.01 
freq.    1325.10  E(vib)   ...       0.01 
freq.    1335.34  E(vib)   ...       0.01 
freq.    1335.44  E(vib)   ...       0.01 
freq.    1336.55  E(vib)   ...       0.01 
freq.    1339.87  E(vib)   ...       0.01 
freq.    1367.82  E(vib)   ...       0.01 
freq.    1369.80  E(vib)   ...       0.01 
freq.    1433.66  E(vib)   ...       0.00 
freq.    1435.10  E(vib)   ...       0.00 
freq.    1439.30  E(vib)   ...       0.00 
freq.    1439.33  E(vib)   ...       0.00 
freq.    1468.35  E(vib)   ...       0.00 
freq.    1468.63  E(vib)   ...       0.00 
freq.    1477.25  E(vib)   ...       0.00 
freq.    1477.26  E(vib)   ...       0.00 
freq.    1478.70  E(vib)   ...       0.00 
freq.    1478.73  E(vib)   ...       0.00 
freq.    1481.20  E(vib)   ...       0.00 
freq.    1486.28  E(vib)   ...       0.00 
freq.    1504.72  E(vib)   ...       0.00 
freq.    1504.73  E(vib)   ...       0.00 
freq.    1506.33  E(vib)   ...       0.00 
freq.    1509.41  E(vib)   ...       0.00 
freq.    1516.46  E(vib)   ...       0.00 
freq.    1516.83  E(vib)   ...       0.00 
freq.    1516.91  E(vib)   ...       0.00 
freq.    1517.26  E(vib)   ...       0.00 
freq.    1561.22  E(vib)   ...       0.00 
freq.    1563.52  E(vib)   ...       0.00 
freq.    1571.92  E(vib)   ...       0.00 
freq.    1571.95  E(vib)   ...       0.00 
freq.    1612.04  E(vib)   ...       0.00 
freq.    1612.04  E(vib)   ...       0.00 
freq.    1613.62  E(vib)   ...       0.00 
freq.    1613.78  E(vib)   ...       0.00 
freq.    1613.78  E(vib)   ...       0.00 
freq.    1613.79  E(vib)   ...       0.00 
freq.    1614.41  E(vib)   ...       0.00 
freq.    1614.83  E(vib)   ...       0.00 
freq.    1624.49  E(vib)   ...       0.00 
freq.    1624.49  E(vib)   ...       0.00 
freq.    1624.91  E(vib)   ...       0.00 
freq.    1625.00  E(vib)   ...       0.00 
freq.    1634.94  E(vib)   ...       0.00 
freq.    1634.98  E(vib)   ...       0.00 
freq.    1636.63  E(vib)   ...       0.00 
freq.    1640.56  E(vib)   ...       0.00 
freq.    3168.72  E(vib)   ...       0.00 
freq.    3168.73  E(vib)   ...       0.00 
freq.    3168.75  E(vib)   ...       0.00 
freq.    3168.76  E(vib)   ...       0.00 
freq.    3189.52  E(vib)   ...       0.00 
freq.    3190.02  E(vib)   ...       0.00 
freq.    3190.02  E(vib)   ...       0.00 
freq.    3190.28  E(vib)   ...       0.00 
freq.    3193.45  E(vib)   ...       0.00 
freq.    3193.45  E(vib)   ...       0.00 
freq.    3193.46  E(vib)   ...       0.00 
freq.    3193.47  E(vib)   ...       0.00 
freq.    3200.53  E(vib)   ...       0.00 
freq.    3200.58  E(vib)   ...       0.00 
freq.    3200.60  E(vib)   ...       0.00 
freq.    3200.63  E(vib)   ...       0.00 
freq.    3208.28  E(vib)   ...       0.00 
freq.    3208.29  E(vib)   ...       0.00 
freq.    3208.31  E(vib)   ...       0.00 
freq.    3208.33  E(vib)   ...       0.00 
freq.    3215.74  E(vib)   ...       0.00 
freq.    3215.85  E(vib)   ...       0.00 
freq.    3215.86  E(vib)   ...       0.00 
freq.    3215.92  E(vib)   ...       0.00 
freq.    3217.51  E(vib)   ...       0.00 
freq.    3217.51  E(vib)   ...       0.00 
freq.    3217.55  E(vib)   ...       0.00 
freq.    3217.56  E(vib)   ...       0.00 
freq.    3239.79  E(vib)   ...       0.00 
freq.    3239.86  E(vib)   ...       0.00 
freq.    3239.96  E(vib)   ...       0.00 
freq.    3240.08  E(vib)   ...       0.00 

------------
INNER ENERGY
------------

The inner energy is: U= E(el) + E(ZPE) + E(vib) + E(rot) + E(trans)
    E(el)   - is the total energy from the electronic structure calculation
              = E(kin-el) + E(nuc-el) + E(el-el) + E(nuc-nuc)
    E(ZPE)  - the the zero temperature vibrational energy from the frequency calculation
    E(vib)  - the the finite temperature correction to E(ZPE) due to population
              of excited vibrational states
    E(rot)  - is the rotational thermal energy
    E(trans)- is the translational thermal energy

Summary of contributions to the inner energy U:
Electronic energy                ...  -4013.07675732 Eh
Zero point energy                ...      0.71060337 Eh     445.91 kcal/mol
Thermal vibrational correction   ...      0.04340978 Eh      27.24 kcal/mol
Thermal rotational correction    ...      0.00141627 Eh       0.89 kcal/mol
Thermal translational correction ...      0.00141627 Eh       0.89 kcal/mol
-----------------------------------------------------------------------
Total thermal energy                  -4012.31991164 Eh


Summary of corrections to the electronic energy:
(perhaps to be used in another calculation)
Total thermal correction                  0.04624232 Eh      29.02 kcal/mol
Non-thermal (ZPE) correction              0.71060337 Eh     445.91 kcal/mol
-----------------------------------------------------------------------
Total correction                          0.75684568 Eh     474.93 kcal/mol


--------
ENTHALPY
--------

The enthalpy is H = U + kB*T
                kB is Boltzmann's constant
Total free energy                 ...  -4012.31991164 Eh 
Thermal Enthalpy correction       ...      0.00094421 Eh       0.59 kcal/mol
-----------------------------------------------------------------------
Total Enthalpy                    ...  -4012.31896743 Eh


Note: Only C1 symmetry has been detected, increase convergence thresholds 
      if your molecule has a higher symmetry. Symmetry factor of 1.0 is   
      used for the rotational entropy correction. 
 

Note: Rotational entropy computed according to Herzberg 
Infrared and Raman Spectra, Chapter V,1, Van Nostrand Reinhold, 1945 
Point Group:  C1, Symmetry Number:   1  
Rotational constants in cm-1:     0.002008     0.001057     0.001056 

Vibrational entropy computed according to the QRRHO of S. Grimme
Chem.Eur.J. 2012 18 9955


-------
ENTROPY
-------

The entropy contributions are T*S = T*(S(el)+S(vib)+S(rot)+S(trans))
     S(el)   - electronic entropy
     S(vib)  - vibrational entropy
     S(rot)  - rotational entropy
     S(trans)- translational entropy
The entropies will be listed as multiplied by the temperature to get
units of energy

Electronic entropy                ...      0.00000000 Eh      0.00 kcal/mol
Vibrational entropy               ...      0.07798247 Eh     48.93 kcal/mol
Rotational entropy                ...      0.01891287 Eh     11.87 kcal/mol
Translational entropy             ...      0.02187790 Eh     13.73 kcal/mol
-----------------------------------------------------------------------
Final entropy term                ...      0.11877325 Eh     74.53 kcal/mol

In case the symmetry of your molecule has not been determined correctly
or in case you have a reason to use a different symmetry number we print 
out the resulting rotational entropy values for sn=1,12 :
 --------------------------------------------------------
|  sn= 1 | S(rot)=       0.01891287 Eh     11.87 kcal/mol|
|  sn= 2 | S(rot)=       0.01825842 Eh     11.46 kcal/mol|
|  sn= 3 | S(rot)=       0.01787558 Eh     11.22 kcal/mol|
|  sn= 4 | S(rot)=       0.01760396 Eh     11.05 kcal/mol|
|  sn= 5 | S(rot)=       0.01739327 Eh     10.91 kcal/mol|
|  sn= 6 | S(rot)=       0.01722113 Eh     10.81 kcal/mol|
|  sn= 7 | S(rot)=       0.01707558 Eh     10.72 kcal/mol|
|  sn= 8 | S(rot)=       0.01694950 Eh     10.64 kcal/mol|
|  sn= 9 | S(rot)=       0.01683829 Eh     10.57 kcal/mol|
|  sn=10 | S(rot)=       0.01673882 Eh     10.50 kcal/mol|
|  sn=11 | S(rot)=       0.01664883 Eh     10.45 kcal/mol|
|  sn=12 | S(rot)=       0.01656667 Eh     10.40 kcal/mol|
 --------------------------------------------------------


-------------------
GIBBS FREE ENERGY
-------------------

The Gibbs free energy is G = H - T*S

Total enthalpy                    ...  -4012.31896743 Eh 
Total entropy correction          ...     -0.11877325 Eh    -74.53 kcal/mol
-----------------------------------------------------------------------
Final Gibbs free energy         ...  -4012.43774068 Eh

For completeness - the Gibbs free energy minus the electronic energy
G-E(el)                           ...      0.63901665 Eh    400.99 kcal/mol

[1653701032.031961] [c312-121:4191938:0]        rc_iface.c:506  UCX  WARN  using maximal value for RETRY_COUNT (7) instead of 40
[1653701032.032014] [c312-121:4191936:0]        rc_iface.c:506  UCX  WARN  using maximal value for RETRY_COUNT (7) instead of 40
[1653701032.032324] [c312-121:4191939:0]        rc_iface.c:506  UCX  WARN  using maximal value for RETRY_COUNT (7) instead of 40
[1653701032.032324] [c312-121:4191937:0]        rc_iface.c:506  UCX  WARN  using maximal value for RETRY_COUNT (7) instead of 40
[1653701032.034823] [c312-121:4191936:0]        rc_iface.c:506  UCX  WARN  using maximal value for RETRY_COUNT (7) instead of 40
[1653701032.034823] [c312-121:4191938:0]        rc_iface.c:506  UCX  WARN  using maximal value for RETRY_COUNT (7) instead of 40
[1653701032.035016] [c312-121:4191939:0]        rc_iface.c:506  UCX  WARN  using maximal value for RETRY_COUNT (7) instead of 40
[1653701032.035016] [c312-121:4191937:0]        rc_iface.c:506  UCX  WARN  using maximal value for RETRY_COUNT (7) instead of 40

Timings for individual modules:

Sum of individual times         ...   116638.588 sec (=1943.976 min)
GTO integral calculation        ...       59.731 sec (=   0.996 min)   0.1 %
SCF iterations                  ...    27612.425 sec (= 460.207 min)  23.7 %
SCF Gradient evaluation         ...     7464.357 sec (= 124.406 min)   6.4 %
Geometry relaxation             ...       12.242 sec (=   0.204 min)   0.0 %
Analytical frequency calculation...    81489.833 sec (=1358.164 min)  69.9 %
                             ****ORCA TERMINATED NORMALLY****
TOTAL RUN TIME: 1 days 8 hours 24 minutes 25 seconds 782 msec
