
                                 *****************
                                 * O   R   C   A *
                                 *****************

                                            #,                                       
                                            ###                                      
                                            ####                                     
                                            #####                                    
                                            ######                                   
                                           ########,                                 
                                     ,,################,,,,,                         
                               ,,#################################,,                 
                          ,,##########################################,,             
                       ,#########################################, ''#####,          
                    ,#############################################,,   '####,        
                  ,##################################################,,,,####,       
                ,###########''''           ''''###############################       
              ,#####''   ,,,,##########,,,,          '''####'''          '####       
            ,##' ,,,,###########################,,,                        '##       
           ' ,,###''''                  '''############,,,                           
         ,,##''                                '''############,,,,        ,,,,,,###''
      ,#''                                            '''#######################'''  
     '                                                          ''''####''''         
             ,#######,   #######,   ,#######,      ##                                
            ,#'     '#,  ##    ##  ,#'     '#,    #''#        ######   ,####,        
            ##       ##  ##   ,#'  ##            #'  '#       #        #'  '#        
            ##       ##  #######   ##           ,######,      #####,   #    #        
            '#,     ,#'  ##    ##  '#,     ,#' ,#      #,         ##   #,  ,#        
             '#######'   ##     ##  '#######'  #'      '#     #####' # '####'        



                  #######################################################
                  #                        -***-                        #
                  #          Department of theory and spectroscopy      #
                  #    Directorship and core code : Frank Neese         #
                  #        Max Planck Institute fuer Kohlenforschung    #
                  #                Kaiser Wilhelm Platz 1               #
                  #                 D-45470 Muelheim/Ruhr               #
                  #                      Germany                        #
                  #                                                     #
                  #                  All rights reserved                #
                  #                        -***-                        #
                  #######################################################


                         Program Version 5.0.2 -  RELEASE  -


 With contributions from (in alphabetic order):
   Daniel Aravena         : Magnetic Suceptibility
   Michael Atanasov       : Ab Initio Ligand Field Theory (pilot matlab implementation)
   Alexander A. Auer      : GIAO ZORA, VPT2 properties, NMR spectrum
   Ute Becker             : Parallelization
   Giovanni Bistoni       : ED, misc. LED, open-shell LED, HFLD
   Martin Brehm           : Molecular dynamics
   Dmytro Bykov           : SCF Hessian
   Vijay G. Chilkuri      : MRCI spin determinant printing, contributions to CSF-ICE
   Dipayan Datta          : RHF DLPNO-CCSD density
   Achintya Kumar Dutta   : EOM-CC, STEOM-CC
   Dmitry Ganyushin       : Spin-Orbit,Spin-Spin,Magnetic field MRCI
   Miquel Garcia          : C-PCM and meta-GGA Hessian, CC/C-PCM, Gaussian charge scheme
   Yang Guo               : DLPNO-NEVPT2, F12-NEVPT2, CIM, IAO-localization
   Andreas Hansen         : Spin unrestricted coupled pair/coupled cluster methods
   Benjamin Helmich-Paris : MC-RPA, TRAH-SCF, COSX integrals
   Lee Huntington         : MR-EOM, pCC
   Robert Izsak           : Overlap fitted RIJCOSX, COSX-SCS-MP3, EOM
   Marcus Kettner         : VPT2
   Christian Kollmar      : KDIIS, OOCD, Brueckner-CCSD(T), CCSD density, CASPT2, CASPT2-K
   Simone Kossmann        : Meta GGA functionals, TD-DFT gradient, OOMP2, MP2 Hessian
   Martin Krupicka        : Initial AUTO-CI
   Lucas Lang             : DCDCAS
   Marvin Lechner         : AUTO-CI (C++ implementation), FIC-MRCC
   Dagmar Lenk            : GEPOL surface, SMD
   Dimitrios Liakos       : Extrapolation schemes; Compound Job, initial MDCI parallelization
   Dimitrios Manganas     : Further ROCIS development; embedding schemes
   Dimitrios Pantazis     : SARC Basis sets
   Anastasios Papadopoulos: AUTO-CI, single reference methods and gradients
   Taras Petrenko         : DFT Hessian,TD-DFT gradient, ASA, ECA, R-Raman, ABS, FL, XAS/XES, NRVS
   Peter Pinski           : DLPNO-MP2, DLPNO-MP2 Gradient
   Christoph Reimann      : Effective Core Potentials
   Marius Retegan         : Local ZFS, SOC
   Christoph Riplinger    : Optimizer, TS searches, QM/MM, DLPNO-CCSD(T), (RO)-DLPNO pert. Triples
   Tobias Risthaus        : Range-separated hybrids, TD-DFT gradient, RPA, STAB
   Michael Roemelt        : Original ROCIS implementation
   Masaaki Saitow         : Open-shell DLPNO-CCSD energy and density
   Barbara Sandhoefer     : DKH picture change effects
   Avijit Sen             : IP-ROCIS
   Kantharuban Sivalingam : CASSCF convergence, NEVPT2, FIC-MRCI
   Bernardo de Souza      : ESD, SOC TD-DFT
   Georgi Stoychev        : AutoAux, RI-MP2 NMR, DLPNO-MP2 response
   Willem Van den Heuvel  : Paramagnetic NMR
   Boris Wezisla          : Elementary symmetry handling
   Frank Wennmohs         : Technical directorship


 We gratefully acknowledge several colleagues who have allowed us to
 interface, adapt or use parts of their codes:
   Stefan Grimme, W. Hujo, H. Kruse, P. Pracht,  : VdW corrections, initial TS optimization,
                  C. Bannwarth, S. Ehlert          DFT functionals, gCP, sTDA/sTD-DF
   Ed Valeev, F. Pavosevic, A. Kumar             : LibInt (2-el integral package), F12 methods
   Garnet Chan, S. Sharma, J. Yang, R. Olivares  : DMRG
   Ulf Ekstrom                                   : XCFun DFT Library
   Mihaly Kallay                                 : mrcc  (arbitrary order and MRCC methods)
   Jiri Pittner, Ondrej Demel                    : Mk-CCSD
   Frank Weinhold                                : gennbo (NPA and NBO analysis)
   Christopher J. Cramer and Donald G. Truhlar   : smd solvation model
   Lars Goerigk                                  : TD-DFT with DH, B97 family of functionals
   V. Asgeirsson, H. Jonsson                     : NEB implementation
   FAccTs GmbH                                   : IRC, NEB, NEB-TS, DLPNO-Multilevel, CI-OPT
                                                   MM, QMMM, 2- and 3-layer-ONIOM, Crystal-QMMM,
                                                   LR-CPCM, SF, NACMEs, symmetry and pop. for TD-DFT,
                                                   nearIR, NL-DFT gradient (VV10), updates on ESD,
                                                   ML-optimized integration grids
   S Lehtola, MJT Oliveira, MAL Marques          : LibXC Library
   Liviu Ungur et al                             : ANISO software


 Your calculation uses the libint2 library for the computation of 2-el integrals
 For citations please refer to: http://libint.valeyev.net

 Your ORCA version has been built with support for libXC version: 5.1.0
 For citations please refer to: https://tddft.org/programs/libxc/

 This ORCA versions uses:
   CBLAS   interface :  Fast vector & matrix operations
   LAPACKE interface :  Fast linear algebra routines
   SCALAPACK package :  Parallel linear algebra routines
   Shared memory     :  Shared parallel matrices
   BLAS/LAPACK       :  OpenBLAS 0.3.15  USE64BITINT DYNAMIC_ARCH NO_AFFINITY Zen SINGLE_THREADED
        Core in use  :  Zen
   Copyright (c) 2011-2014, The OpenBLAS Project


Your calculation utilizes the atom-pairwise dispersion correction
based on tight binding partial charges (D4)
Cite in your paper:
E.Caldeweyher, C.Bannwarth, S.Grimme, J.Chem.Phys., (2017), 147, 034112.
E.Caldeweyher, S.Ehlert, A.Hansen, H.Neugebauer, S.Grimme, J.Chem.Phys., (2018), in progress.
   

================================================================================

----- Orbital basis set information -----
Your calculation utilizes the basis: def2-TZVP(-f)
   F. Weigend and R. Ahlrichs, Phys. Chem. Chem. Phys. 7, 3297 (2005).

----- AuxJ basis set information -----
Your calculation utilizes the auxiliary basis: def2/J
   F. Weigend, Phys. Chem. Chem. Phys. 8, 1057 (2006).

================================================================================
                                        WARNINGS
                       Please study these warnings very carefully!
================================================================================


WARNING: Geometry Optimization
  ===> : Switching off AutoStart
         For restart on a previous wavefunction, please use MOREAD

INFO   : the flag for use of the SHARK integral package has been found!

================================================================================
                                       INPUT FILE
================================================================================
NAME = T0_def_pyrazine_Nickel.inp
|  1> !UKS B3LYP DEF2-TZVP(-F) RIJCOSX D4 TIGHTSCF CPCM(CH2Cl2) OPT FREQ
|  2> 
|  3> %maxcore  62000
|  4> %PAL 
|  5>    NPROCS 4
|  6> END
|  7> 
|  8> # Ni (II) (tppz)2 2+
|  9>   
| 10> * xyz 2 3
| 11> Ni    0.000000000000      0.000000000000      0.000000000000
| 12> N     0.000000000000      0.000000000000      2.022675000000
| 13> N     0.000000000000      0.000000000000      4.712268000000
| 14> C    -1.172167000000      0.227546000000      2.653816000000
| 15> C    -4.408622000000      0.000000000000     -0.095127000000
| 16> C    -3.683596000000      0.083969000000      2.213896000000
| 17> H    -3.911823000000      0.063590000000      3.270619000000
| 18> C    -4.718829000000     -0.005481000000      1.272335000000
| 19> C    -1.104881000000      0.425984000000      4.065166000000
| 20> N    -2.063651000000      0.150186000000      0.429508000000
| 21> C    -3.618275000000      2.912541000000      5.013229000000
| 22> N    -2.733523000000      2.195136000000      4.286369000000
| 23> C    -2.357844000000      0.773415000000      6.218507000000
| 24> H    -1.839208000000     -0.073458000000      6.653575000000
| 25> C    -2.356789000000      0.182621000000      1.765662000000
| 26> C    -3.927410000000      2.610596000000      6.351873000000
| 27> H    -4.648088000000      3.215222000000      6.892531000000
| 28> C    -3.061142000000      0.068196000000     -0.475206000000
| 29> C    -2.115184000000      1.138991000000      4.882086000000
| 30> C    -3.284531000000      1.521458000000      6.961635000000
| 31> H    -3.499186000000      1.259339000000      7.993005000000
| 32> H    -5.748992000000     -0.081760000000      1.604941000000
| 33> H    -4.087450000000      3.752754000000      4.509921000000
| 34> H    -5.182006000000     -0.062269000000     -0.852555000000
| 35> H    -2.775345000000      0.046475000000     -1.519919000000
| 36> C     1.172167000000     -0.227546000000      2.653816000000
| 37> C     4.408622000000      0.000000000000     -0.095127000000
| 38> C     3.683596000000     -0.083969000000      2.213896000000
| 39> H     3.911823000000     -0.063590000000      3.270619000000
| 40> C     4.718829000000      0.005481000000      1.272335000000
| 41> C     1.104881000000     -0.425984000000      4.065166000000
| 42> N     2.063651000000     -0.150186000000      0.429508000000
| 43> C     3.618275000000     -2.912541000000      5.013229000000
| 44> N     2.733523000000     -2.195136000000      4.286369000000
| 45> C     2.357844000000     -0.773415000000      6.218507000000
| 46> H     1.839208000000      0.073458000000      6.653575000000
| 47> C     2.356789000000     -0.182621000000      1.765662000000
| 48> C     3.927410000000     -2.610596000000      6.351873000000
| 49> H     4.648088000000     -3.215222000000      6.892531000000
| 50> C     3.061142000000     -0.068196000000     -0.475206000000
| 51> C     2.115184000000     -1.138991000000      4.882086000000
| 52> C     3.284531000000     -1.521458000000      6.961635000000
| 53> H     3.499186000000     -1.259339000000      7.993005000000
| 54> H     5.748992000000      0.081760000000      1.604941000000
| 55> H     4.087450000000     -3.752754000000      4.509921000000
| 56> H     5.182006000000      0.062269000000     -0.852555000000
| 57> H     2.775345000000     -0.046475000000     -1.519919000000
| 58> N     0.000000000000      0.000000000000     -2.022675000000
| 59> N     0.000000000000      0.000000000000     -4.712268000000
| 60> C     0.227546000000      1.172167000000     -2.653816000000
| 61> C     0.000000000000      4.408622000000      0.095127000000
| 62> C     0.083969000000      3.683596000000     -2.213896000000
| 63> H     0.063590000000      3.911823000000     -3.270619000000
| 64> C    -0.005481000000      4.718829000000     -1.272335000000
| 65> C     0.425984000000      1.104881000000     -4.065166000000
| 66> N     0.150186000000      2.063651000000     -0.429508000000
| 67> C     2.912541000000      3.618275000000     -5.013229000000
| 68> N     2.195136000000      2.733523000000     -4.286369000000
| 69> C     0.773415000000      2.357844000000     -6.218507000000
| 70> H    -0.073458000000      1.839208000000     -6.653575000000
| 71> C     0.182621000000      2.356789000000     -1.765662000000
| 72> C     2.610596000000      3.927410000000     -6.351873000000
| 73> H     3.215222000000      4.648088000000     -6.892531000000
| 74> C     0.068196000000      3.061142000000      0.475206000000
| 75> C     1.138991000000      2.115184000000     -4.882086000000
| 76> C     1.521458000000      3.284531000000     -6.961635000000
| 77> H     1.259339000000      3.499186000000     -7.993005000000
| 78> H    -0.081760000000      5.748992000000     -1.604941000000
| 79> H     3.752754000000      4.087450000000     -4.509921000000
| 80> H    -0.062269000000      5.182006000000      0.852555000000
| 81> H     0.046475000000      2.775345000000      1.519919000000
| 82> C    -0.227546000000     -1.172167000000     -2.653816000000
| 83> C     0.000000000000     -4.408622000000      0.095127000000
| 84> C    -0.083969000000     -3.683596000000     -2.213896000000
| 85> H    -0.063590000000     -3.911823000000     -3.270619000000
| 86> C     0.005481000000     -4.718829000000     -1.272335000000
| 87> C    -0.425984000000     -1.104881000000     -4.065166000000
| 88> N    -0.150186000000     -2.063651000000     -0.429508000000
| 89> C    -2.912541000000     -3.618275000000     -5.013229000000
| 90> N    -2.195136000000     -2.733523000000     -4.286369000000
| 91> C    -0.773415000000     -2.357844000000     -6.218507000000
| 92> H     0.073458000000     -1.839208000000     -6.653575000000
| 93> C    -0.182621000000     -2.356789000000     -1.765662000000
| 94> C    -2.610596000000     -3.927410000000     -6.351873000000
| 95> H    -3.215222000000     -4.648088000000     -6.892531000000
| 96> C    -0.068196000000     -3.061142000000      0.475206000000
| 97> C    -1.138991000000     -2.115184000000     -4.882086000000
| 98> C    -1.521458000000     -3.284531000000     -6.961635000000
| 99> H    -1.259339000000     -3.499186000000     -7.993005000000
|100> H     0.081760000000     -5.748992000000     -1.604941000000
|101> H    -3.752754000000     -4.087450000000     -4.509921000000
|102> H     0.062269000000     -5.182006000000      0.852555000000
|103> H    -0.046475000000     -2.775345000000      1.519919000000
|104> *
|105> 
|106> 
|107> 
|108>                          ****END OF INPUT****
================================================================================

                       *****************************
                       * Geometry Optimization Run *
                       *****************************

Geometry optimization settings:
Update method            Update   .... BFGS
Choice of coordinates    CoordSys .... Z-matrix Internals
Initial Hessian          InHess   .... Almoef's Model

Convergence Tolerances:
Energy Change            TolE     ....  5.0000e-06 Eh
Max. Gradient            TolMAXG  ....  3.0000e-04 Eh/bohr
RMS Gradient             TolRMSG  ....  1.0000e-04 Eh/bohr
Max. Displacement        TolMAXD  ....  4.0000e-03 bohr
RMS Displacement         TolRMSD  ....  2.0000e-03 bohr
Strict Convergence                ....  False
------------------------------------------------------------------------------
                        ORCA OPTIMIZATION COORDINATE SETUP
------------------------------------------------------------------------------

The optimization will be done in new redundant internal coordinates
Making redundant internal coordinates   ...  (new redundants) done
Evaluating the initial hessian          ...  (Almloef) done
Evaluating the coordinates              ...  done
Calculating the B-matrix                .... done
Calculating the G-matrix                .... done
Diagonalizing the G-matrix              .... done
Small eigenvalue found = 2.480e-03
Small eigenvalue found = 2.480e-03
Small eigenvalue found = 2.544e-03
Small eigenvalue found = 3.085e-03
Small eigenvalue found = 4.230e-03
Small eigenvalue found = 7.876e-03
Small eigenvalue found = 7.876e-03
Small eigenvalue found = 9.045e-03
Small eigenvalue found = 1.410e-02
Small eigenvalue found = 1.900e-02
Small eigenvalue found = 2.021e-02
Small eigenvalue found = 2.021e-02
Small eigenvalue found = 2.155e-02
Small eigenvalue found = 2.660e-02
The first mode is                       ....  323
The number of degrees of freedom        ....  273

    -----------------------------------------------------------------
                    Redundant Internal Coordinates


    -----------------------------------------------------------------
         Definition                    Initial Value    Approx d2E/dq
    -----------------------------------------------------------------
      1. B(N   1,Ni  0)                  2.0227         0.554125   
      2. B(C   3,N   1)                  1.3506         0.646774   
      3. B(H   6,C   5)                  1.0813         0.371822   
      4. B(C   7,C   4)                  1.4022         0.597376   
      5. B(C   7,C   5)                  1.4022         0.597349   
      6. B(C   8,C   3)                  1.4268         0.545752   
      7. B(C   8,N   2)                  1.3494         0.649531   
      8. B(N   9,Ni  0)                  2.1132         0.397331   
      9. B(N  11,C  10)                  1.3512         0.645290   
     10. B(H  13,C  12)                  1.0842         0.367873   
     11. B(C  14,C   5)                  1.4039         0.593594   
     12. B(C  14,C   3)                  1.4813         0.446808   
     13. B(C  14,N   9)                  1.3683         0.605997   
     14. B(C  15,C  10)                  1.4067         0.587696   
     15. B(H  16,C  15)                  1.0850         0.366753   
     16. B(C  17,C   4)                  1.4017         0.598471   
     17. B(C  17,N   9)                  1.3492         0.650192   
     18. B(C  18,C  12)                  1.4066         0.587813   
     19. B(C  18,N  11)                  1.3611         0.622217   
     20. B(C  18,C   8)                  1.4820         0.445544   
     21. B(C  19,C  15)                  1.4040         0.593391   
     22. B(C  19,C  12)                  1.4038         0.593987   
     23. B(H  20,C  19)                  1.0856         0.365980   
     24. B(H  21,C   7)                  1.0852         0.366492   
     25. B(H  22,C  10)                  1.0860         0.365427   
     26. B(H  23,C   4)                  1.0843         0.367726   
     27. B(H  24,C  17)                  1.0833         0.369049   
     28. B(C  25,N   1)                  1.3506         0.646774   
     29. B(H  28,C  27)                  1.0813         0.371822   
     30. B(C  29,C  27)                  1.4022         0.597349   
     31. B(C  29,C  26)                  1.4022         0.597376   
     32. B(C  30,C  25)                  1.4268         0.545752   
     33. B(C  30,N   2)                  1.3494         0.649531   
     34. B(N  31,Ni  0)                  2.1132         0.397331   
     35. B(N  33,C  32)                  1.3512         0.645290   
     36. B(H  35,C  34)                  1.0842         0.367873   
     37. B(C  36,N  31)                  1.3683         0.605997   
     38. B(C  36,C  27)                  1.4039         0.593594   
     39. B(C  36,C  25)                  1.4813         0.446808   
     40. B(C  37,C  32)                  1.4067         0.587696   
     41. B(H  38,C  37)                  1.0850         0.366753   
     42. B(C  39,N  31)                  1.3492         0.650192   
     43. B(C  39,C  26)                  1.4017         0.598471   
     44. B(C  40,C  34)                  1.4066         0.587813   
     45. B(C  40,N  33)                  1.3611         0.622217   
     46. B(C  40,C  30)                  1.4820         0.445544   
     47. B(C  41,C  37)                  1.4040         0.593391   
     48. B(C  41,C  34)                  1.4038         0.593987   
     49. B(H  42,C  41)                  1.0856         0.365980   
     50. B(H  43,C  29)                  1.0852         0.366492   
     51. B(H  44,C  32)                  1.0860         0.365427   
     52. B(H  45,C  26)                  1.0843         0.367726   
     53. B(H  46,C  39)                  1.0833         0.369049   
     54. B(N  47,Ni  0)                  2.0227         0.554125   
     55. B(C  49,N  47)                  1.3506         0.646774   
     56. B(H  52,C  51)                  1.0813         0.371822   
     57. B(C  53,C  51)                  1.4022         0.597349   
     58. B(C  53,C  50)                  1.4022         0.597376   
     59. B(C  54,C  49)                  1.4268         0.545752   
     60. B(C  54,N  48)                  1.3494         0.649531   
     61. B(N  55,Ni  0)                  2.1132         0.397331   
     62. B(N  57,C  56)                  1.3512         0.645290   
     63. B(H  59,C  58)                  1.0842         0.367873   
     64. B(C  60,N  55)                  1.3683         0.605997   
     65. B(C  60,C  51)                  1.4039         0.593594   
     66. B(C  60,C  49)                  1.4813         0.446808   
     67. B(C  61,C  56)                  1.4067         0.587696   
     68. B(H  62,C  61)                  1.0850         0.366753   
     69. B(C  63,N  55)                  1.3492         0.650192   
     70. B(C  63,C  50)                  1.4017         0.598471   
     71. B(C  64,C  58)                  1.4066         0.587813   
     72. B(C  64,N  57)                  1.3611         0.622217   
     73. B(C  64,C  54)                  1.4820         0.445544   
     74. B(C  65,C  61)                  1.4040         0.593391   
     75. B(C  65,C  58)                  1.4038         0.593987   
     76. B(H  66,C  65)                  1.0856         0.365980   
     77. B(H  67,C  53)                  1.0852         0.366492   
     78. B(H  68,C  56)                  1.0860         0.365427   
     79. B(H  69,C  50)                  1.0843         0.367726   
     80. B(H  70,C  63)                  1.0833         0.369049   
     81. B(C  71,N  47)                  1.3506         0.646774   
     82. B(H  74,C  73)                  1.0813         0.371822   
     83. B(C  75,C  73)                  1.4022         0.597349   
     84. B(C  75,C  72)                  1.4022         0.597376   
     85. B(C  76,C  71)                  1.4268         0.545752   
     86. B(C  76,N  48)                  1.3494         0.649531   
     87. B(N  77,Ni  0)                  2.1132         0.397331   
     88. B(N  79,C  78)                  1.3512         0.645290   
     89. B(H  81,C  80)                  1.0842         0.367873   
     90. B(C  82,N  77)                  1.3683         0.605997   
     91. B(C  82,C  73)                  1.4039         0.593594   
     92. B(C  82,C  71)                  1.4813         0.446808   
     93. B(C  83,C  78)                  1.4067         0.587696   
     94. B(H  84,C  83)                  1.0850         0.366753   
     95. B(C  85,N  77)                  1.3492         0.650192   
     96. B(C  85,C  72)                  1.4017         0.598471   
     97. B(C  86,C  80)                  1.4066         0.587813   
     98. B(C  86,N  79)                  1.3611         0.622217   
     99. B(C  86,C  76)                  1.4820         0.445544   
    100. B(C  87,C  83)                  1.4040         0.593391   
    101. B(C  87,C  80)                  1.4038         0.593987   
    102. B(H  88,C  87)                  1.0856         0.365980   
    103. B(H  89,C  75)                  1.0852         0.366492   
    104. B(H  90,C  78)                  1.0860         0.365427   
    105. B(H  91,C  72)                  1.0843         0.367726   
    106. B(H  92,C  85)                  1.0833         0.369049   
    107. A(N  55,Ni  0,N  77)          156.5460         0.460927   
    108. A(N  31,Ni  0,N  77)           92.3676         0.460927   
    109. A(N   1,Ni  0,N  55)          101.7270         0.490008   
    110. A(N   1,Ni  0,N  77)          101.7270         0.490008   
    111. A(N   9,Ni  0,N  77)           92.3676         0.460927   
    112. A(N  31,Ni  0,N  47)          101.7270         0.490008   
    113. A(N   9,Ni  0,N  47)          101.7270         0.490008   
    114. A(N   1,Ni  0,N   9)           78.2730         0.490008   
    115. A(N   9,Ni  0,N  31)          156.5460         0.460927   
    116. A(N   1,Ni  0,N  31)           78.2730         0.490008   
    117. A(N  47,Ni  0,N  55)           78.2730         0.490008   
    118. A(N  47,Ni  0,N  77)           78.2730         0.490008   
    119. A(N  31,Ni  0,N  55)           92.3676         0.460927   
    120. A(N   9,Ni  0,N  55)           92.3676         0.460927   
    121. A(Ni  0,N   1,C   3)          117.8597         0.475761   
    122. A(Ni  0,N   1,C  25)          117.8597         0.475761   
    123. A(C   3,N   1,C  25)          124.2806         0.434969   
    124. A(C   8,N   2,C  30)          122.6897         0.435636   
    125. A(C   8,C   3,C  14)          129.4215         0.400288   
    126. A(N   1,C   3,C   8)          116.4070         0.424685   
    127. A(N   1,C   3,C  14)          114.1282         0.409825   
    128. A(C   7,C   4,C  17)          118.5084         0.428449   
    129. A(C  17,C   4,H  23)          119.9367         0.352051   
    130. A(C   7,C   4,H  23)          121.5481         0.351942   
    131. A(C   7,C   5,C  14)          119.1971         0.427817   
    132. A(H   6,C   5,C   7)          119.9467         0.352599   
    133. A(H   6,C   5,C  14)          120.8515         0.352224   
    134. A(C   5,C   7,H  21)          119.9677         0.351739   
    135. A(C   4,C   7,H  21)          120.6087         0.351742   
    136. A(C   4,C   7,C   5)          119.4232         0.428305   
    137. A(C   3,C   8,C  18)          125.4504         0.400089   
    138. A(N   2,C   8,C  18)          116.4682         0.409928   
    139. A(N   2,C   8,C   3)          117.9724         0.425008   
    140. A(Ni  0,N   9,C  17)          125.5484         0.448141   
    141. A(C  14,N   9,C  17)          119.8589         0.430314   
    142. A(Ni  0,N   9,C  14)          114.1648         0.442465   
    143. A(C  15,C  10,H  22)          120.8084         0.350600   
    144. A(N  11,C  10,H  22)          116.3814         0.353996   
    145. A(N  11,C  10,C  15)          122.8097         0.430180   
    146. A(C  10,N  11,C  18)          118.2939         0.431773   
    147. A(C  18,C  12,C  19)          118.5780         0.426636   
    148. A(H  13,C  12,C  19)          121.3053         0.351627   
    149. A(H  13,C  12,C  18)          120.1157         0.351007   
    150. A(C   5,C  14,N   9)          120.8344         0.426124   
    151. A(C   3,C  14,N   9)          114.5121         0.405131   
    152. A(C   3,C  14,C   5)          124.5061         0.406265   
    153. A(C  10,C  15,C  19)          118.6316         0.426544   
    154. A(H  16,C  15,C  19)          121.3317         0.351387   
    155. A(C  10,C  15,H  16)          120.0366         0.350815   
    156. A(C   4,C  17,N   9)          122.1315         0.432174   
    157. A(C   4,C  17,H  24)          120.9388         0.352265   
    158. A(N   9,C  17,H  24)          116.9266         0.355043   
    159. A(N  11,C  18,C  12)          122.6237         0.427395   
    160. A(C   8,C  18,C  12)          121.0826         0.405360   
    161. A(C   8,C  18,N  11)          116.2149         0.406823   
    162. A(C  12,C  19,C  15)          119.0601         0.427359   
    163. A(C  15,C  19,H  20)          120.6214         0.351261   
    164. A(C  12,C  19,H  20)          120.3185         0.351321   
    165. A(C  30,C  25,C  36)          129.4215         0.400288   
    166. A(N   1,C  25,C  36)          114.1282         0.409825   
    167. A(N   1,C  25,C  30)          116.4070         0.424685   
    168. A(C  29,C  26,C  39)          118.5084         0.428449   
    169. A(C  39,C  26,H  45)          119.9367         0.352051   
    170. A(C  29,C  26,H  45)          121.5481         0.351942   
    171. A(C  29,C  27,C  36)          119.1971         0.427817   
    172. A(H  28,C  27,C  36)          120.8515         0.352224   
    173. A(H  28,C  27,C  29)          119.9467         0.352599   
    174. A(C  26,C  29,C  27)          119.4232         0.428305   
    175. A(C  27,C  29,H  43)          119.9677         0.351739   
    176. A(C  26,C  29,H  43)          120.6087         0.351742   
    177. A(C  25,C  30,C  40)          125.4504         0.400089   
    178. A(N   2,C  30,C  25)          117.9724         0.425008   
    179. A(N   2,C  30,C  40)          116.4682         0.409928   
    180. A(Ni  0,N  31,C  39)          125.5484         0.448141   
    181. A(Ni  0,N  31,C  36)          114.1648         0.442465   
    182. A(C  36,N  31,C  39)          119.8589         0.430314   
    183. A(N  33,C  32,C  37)          122.8097         0.430180   
    184. A(C  37,C  32,H  44)          120.8084         0.350600   
    185. A(N  33,C  32,H  44)          116.3814         0.353996   
    186. A(C  32,N  33,C  40)          118.2939         0.431773   
    187. A(C  40,C  34,C  41)          118.5780         0.426636   
    188. A(H  35,C  34,C  41)          121.3053         0.351627   
    189. A(H  35,C  34,C  40)          120.1157         0.351007   
    190. A(C  27,C  36,N  31)          120.8344         0.426124   
    191. A(C  25,C  36,N  31)          114.5121         0.405131   
    192. A(C  25,C  36,C  27)          124.5061         0.406265   
    193. A(C  32,C  37,H  38)          120.0366         0.350815   
    194. A(H  38,C  37,C  41)          121.3317         0.351387   
    195. A(C  32,C  37,C  41)          118.6316         0.426544   
    196. A(N  31,C  39,H  46)          116.9266         0.355043   
    197. A(C  26,C  39,H  46)          120.9388         0.352265   
    198. A(C  26,C  39,N  31)          122.1315         0.432174   
    199. A(N  33,C  40,C  34)          122.6237         0.427395   
    200. A(C  30,C  40,C  34)          121.0826         0.405360   
    201. A(C  30,C  40,N  33)          116.2149         0.406823   
    202. A(C  37,C  41,H  42)          120.6214         0.351261   
    203. A(C  34,C  41,H  42)          120.3185         0.351321   
    204. A(C  34,C  41,C  37)          119.0601         0.427359   
    205. A(Ni  0,N  47,C  49)          117.8597         0.475761   
    206. A(C  49,N  47,C  71)          124.2806         0.434969   
    207. A(Ni  0,N  47,C  71)          117.8597         0.475761   
    208. A(C  54,N  48,C  76)          122.6897         0.435636   
    209. A(C  54,C  49,C  60)          129.4215         0.400288   
    210. A(N  47,C  49,C  60)          114.1282         0.409825   
    211. A(N  47,C  49,C  54)          116.4070         0.424685   
    212. A(C  53,C  50,C  63)          118.5084         0.428449   
    213. A(C  63,C  50,H  69)          119.9367         0.352051   
    214. A(C  53,C  50,H  69)          121.5481         0.351942   
    215. A(C  53,C  51,C  60)          119.1971         0.427817   
    216. A(H  52,C  51,C  60)          120.8515         0.352224   
    217. A(H  52,C  51,C  53)          119.9467         0.352599   
    218. A(C  50,C  53,H  67)          120.6087         0.351742   
    219. A(C  50,C  53,C  51)          119.4232         0.428305   
    220. A(C  51,C  53,H  67)          119.9677         0.351739   
    221. A(C  49,C  54,C  64)          125.4504         0.400089   
    222. A(N  48,C  54,C  64)          116.4682         0.409928   
    223. A(N  48,C  54,C  49)          117.9724         0.425008   
    224. A(C  60,N  55,C  63)          119.8589         0.430314   
    225. A(Ni  0,N  55,C  63)          125.5484         0.448141   
    226. A(Ni  0,N  55,C  60)          114.1648         0.442465   
    227. A(N  57,C  56,C  61)          122.8097         0.430180   
    228. A(C  61,C  56,H  68)          120.8084         0.350600   
    229. A(N  57,C  56,H  68)          116.3814         0.353996   
    230. A(C  56,N  57,C  64)          118.2939         0.431773   
    231. A(C  64,C  58,C  65)          118.5780         0.426636   
    232. A(H  59,C  58,C  65)          121.3053         0.351627   
    233. A(H  59,C  58,C  64)          120.1157         0.351007   
    234. A(C  51,C  60,N  55)          120.8344         0.426124   
    235. A(C  49,C  60,N  55)          114.5121         0.405131   
    236. A(C  49,C  60,C  51)          124.5061         0.406265   
    237. A(H  62,C  61,C  65)          121.3317         0.351387   
    238. A(C  56,C  61,C  65)          118.6316         0.426544   
    239. A(C  56,C  61,H  62)          120.0366         0.350815   
    240. A(C  50,C  63,N  55)          122.1315         0.432174   
    241. A(N  55,C  63,H  70)          116.9266         0.355043   
    242. A(C  50,C  63,H  70)          120.9388         0.352265   
    243. A(N  57,C  64,C  58)          122.6237         0.427395   
    244. A(C  54,C  64,C  58)          121.0826         0.405360   
    245. A(C  54,C  64,N  57)          116.2149         0.406823   
    246. A(C  61,C  65,H  66)          120.6214         0.351261   
    247. A(C  58,C  65,H  66)          120.3185         0.351321   
    248. A(C  58,C  65,C  61)          119.0601         0.427359   
    249. A(C  76,C  71,C  82)          129.4215         0.400288   
    250. A(N  47,C  71,C  82)          114.1282         0.409825   
    251. A(N  47,C  71,C  76)          116.4070         0.424685   
    252. A(C  85,C  72,H  91)          119.9367         0.352051   
    253. A(C  75,C  72,H  91)          121.5481         0.351942   
    254. A(C  75,C  72,C  85)          118.5084         0.428449   
    255. A(C  75,C  73,C  82)          119.1971         0.427817   
    256. A(H  74,C  73,C  82)          120.8515         0.352224   
    257. A(H  74,C  73,C  75)          119.9467         0.352599   
    258. A(C  73,C  75,H  89)          119.9677         0.351739   
    259. A(C  72,C  75,H  89)          120.6087         0.351742   
    260. A(C  72,C  75,C  73)          119.4232         0.428305   
    261. A(C  71,C  76,C  86)          125.4504         0.400089   
    262. A(N  48,C  76,C  86)          116.4682         0.409928   
    263. A(N  48,C  76,C  71)          117.9724         0.425008   
    264. A(C  82,N  77,C  85)          119.8589         0.430314   
    265. A(Ni  0,N  77,C  85)          125.5484         0.448141   
    266. A(Ni  0,N  77,C  82)          114.1648         0.442465   
    267. A(C  83,C  78,H  90)          120.8084         0.350600   
    268. A(N  79,C  78,H  90)          116.3814         0.353996   
    269. A(N  79,C  78,C  83)          122.8097         0.430180   
    270. A(C  78,N  79,C  86)          118.2939         0.431773   
    271. A(C  86,C  80,C  87)          118.5780         0.426636   
    272. A(H  81,C  80,C  87)          121.3053         0.351627   
    273. A(H  81,C  80,C  86)          120.1157         0.351007   
    274. A(C  73,C  82,N  77)          120.8344         0.426124   
    275. A(C  71,C  82,N  77)          114.5121         0.405131   
    276. A(C  71,C  82,C  73)          124.5061         0.406265   
    277. A(H  84,C  83,C  87)          121.3317         0.351387   
    278. A(C  78,C  83,C  87)          118.6316         0.426544   
    279. A(C  78,C  83,H  84)          120.0366         0.350815   
    280. A(N  77,C  85,H  92)          116.9266         0.355043   
    281. A(C  72,C  85,H  92)          120.9388         0.352265   
    282. A(C  72,C  85,N  77)          122.1315         0.432174   
    283. A(N  79,C  86,C  80)          122.6237         0.427395   
    284. A(C  76,C  86,C  80)          121.0826         0.405360   
    285. A(C  76,C  86,N  79)          116.2149         0.406823   
    286. A(C  83,C  87,H  88)          120.6214         0.351261   
    287. A(C  80,C  87,H  88)          120.3185         0.351321   
    288. A(C  80,C  87,C  83)          119.0601         0.427359   
    289. D(C  25,N   1,Ni  0,N  31)     -6.8234         0.003114   
    290. D(C   3,N   1,Ni  0,N  55)     83.1766         0.003114   
    291. D(C   3,N   1,Ni  0,N  77)    -96.8234         0.003114   
    292. D(C  25,N   1,Ni  0,N   9)    173.1766         0.003114   
    293. D(C  25,N   1,Ni  0,N  77)     83.1766         0.003114   
    294. D(C   3,N   1,Ni  0,N   9)     -6.8234         0.003114   
    295. D(C   3,N   1,Ni  0,N  31)    173.1766         0.003114   
    296. D(C  25,N   1,Ni  0,N  55)    -96.8234         0.003114   
    297. D(C  14,C   3,N   1,C  25)   -168.4855         0.034109   
    298. D(C   8,C   3,N   1,Ni  0)   -170.6499         0.034109   
    299. D(C   8,C   3,N   1,C  25)      9.3501         0.034109   
    300. D(C  14,C   3,N   1,Ni  0)     11.5145         0.034109   
    301. D(H  21,C   7,C   4,C  17)   -178.5004         0.024590   
    302. D(C   5,C   7,C   4,H  23)   -179.6751         0.024590   
    303. D(C   5,C   7,C   4,C  17)      1.2747         0.024590   
    304. D(H  21,C   7,C   5,H   6)      0.8133         0.024587   
    305. D(H  21,C   7,C   5,C  14)   -179.9717         0.024587   
    306. D(H  21,C   7,C   4,H  23)      0.5498         0.024590   
    307. D(C   4,C   7,C   5,H   6)   -178.9632         0.024587   
    308. D(C   4,C   7,C   5,C  14)      0.2518         0.024587   
    309. D(C  18,C   8,C   3,N   1)    157.1435         0.020365   
    310. D(C  18,C   8,N   2,C  30)   -166.8497         0.031176   
    311. D(N   2,C   8,C   3,C  14)    158.5283         0.020365   
    312. D(N   2,C   8,C   3,N   1)    -18.9145         0.020365   
    313. D(C  18,C   8,C   3,C  14)    -25.4137         0.020365   
    314. D(C   3,C   8,N   2,C  30)      9.5635         0.031176   
    315. D(C  14,N   9,Ni  0,N  77)    101.9969         0.002332   
    316. D(C  14,N   9,Ni  0,N  55)   -100.9806         0.002332   
    317. D(C  14,N   9,Ni  0,N   1)      0.5082         0.002332   
    318. D(C  14,N   9,Ni  0,N  31)      0.5082         0.002332   
    319. D(C  14,N   9,Ni  0,N  47)   -179.4918         0.002332   
    320. D(C  17,N   9,Ni  0,N   1)   -171.9259         0.002332   
    321. D(C  17,N   9,Ni  0,N  77)    -70.4371         0.002332   
    322. D(C  17,N   9,Ni  0,N  31)   -171.9259         0.002332   
    323. D(C  17,N   9,Ni  0,N  47)      8.0741         0.002332   
    324. D(C  17,N   9,Ni  0,N  55)     86.5853         0.002332   
    325. D(C  18,N  11,C  10,H  22)    179.5362         0.030738   
    326. D(C  18,N  11,C  10,C  15)     -0.2166         0.030738   
    327. D(C   3,C  14,N   9,C  17)    178.0531         0.029634   
    328. D(C   5,C  14,N   9,C  17)      2.2717         0.029634   
    329. D(C   5,C  14,N   9,Ni  0)   -170.6327         0.029634   
    330. D(N   9,C  14,C   5,C   7)     -2.0558         0.024263   
    331. D(N   9,C  14,C   5,H   6)    177.1518         0.024263   
    332. D(C   3,C  14,C   5,C   7)   -177.3971         0.024263   
    333. D(C   3,C  14,C   5,H   6)      1.8106         0.024263   
    334. D(C   3,C  14,N   9,Ni  0)      5.1487         0.029634   
    335. D(N   9,C  14,C   3,C   8)    171.7736         0.013612   
    336. D(N   9,C  14,C   3,N   1)    -10.7359         0.013612   
    337. D(C   5,C  14,C   3,N   1)    164.8681         0.013612   
    338. D(C   5,C  14,C   3,C   8)    -12.6223         0.013612   
    339. D(H  16,C  15,C  10,H  22)      0.4752         0.023759   
    340. D(C  19,C  15,C  10,H  22)   -179.4105         0.023759   
    341. D(C  19,C  15,C  10,N  11)      0.3316         0.023759   
    342. D(H  16,C  15,C  10,N  11)   -179.7827         0.023759   
    343. D(H  24,C  17,N   9,C  14)    179.9527         0.034502   
    344. D(C   4,C  17,N   9,C  14)     -0.6733         0.034502   
    345. D(C   4,C  17,N   9,Ni  0)    171.3647         0.034502   
    346. D(H  24,C  17,C   4,H  23)     -0.8204         0.024685   
    347. D(N   9,C  17,C   4,C   7)     -1.1037         0.024685   
    348. D(N   9,C  17,C   4,H  23)    179.8304         0.024685   
    349. D(H  24,C  17,C   4,C   7)    178.2456         0.024685   
    350. D(H  24,C  17,N   9,Ni  0)     -8.0093         0.034502   
    351. D(N  11,C  18,C   8,N   2)    141.6581         0.013537   
    352. D(N  11,C  18,C  12,C  19)      0.6179         0.023769   
    353. D(C   8,C  18,C  12,C  19)    177.2659         0.023769   
    354. D(C  12,C  18,N  11,C  10)     -0.2680         0.028419   
    355. D(C  12,C  18,C   8,C   3)    148.6938         0.013537   
    356. D(C  12,C  18,C   8,N   2)    -35.1953         0.013537   
    357. D(C   8,C  18,C  12,H  13)     -3.0988         0.023769   
    358. D(N  11,C  18,C  12,H  13)   -179.7467         0.023769   
    359. D(C   8,C  18,N  11,C  10)   -177.0683         0.028419   
    360. D(N  11,C  18,C   8,C   3)    -34.4529         0.013537   
    361. D(H  20,C  19,C  15,H  16)      0.1501         0.024246   
    362. D(H  20,C  19,C  15,C  10)   -179.9658         0.024246   
    363. D(C  12,C  19,C  15,H  16)   -179.8505         0.024246   
    364. D(C  12,C  19,C  15,C  10)      0.0336         0.024246   
    365. D(H  20,C  19,C  12,C  18)    179.5190         0.024297   
    366. D(C  15,C  19,C  12,C  18)     -0.4804         0.024297   
    367. D(H  20,C  19,C  12,H  13)     -0.1119         0.024297   
    368. D(C  15,C  19,C  12,H  13)    179.8888         0.024297   
    369. D(C  36,C  25,N   1,C   3)   -168.4855         0.034109   
    370. D(C  36,C  25,N   1,Ni  0)     11.5145         0.034109   
    371. D(C  30,C  25,N   1,C   3)      9.3501         0.034109   
    372. D(C  30,C  25,N   1,Ni  0)   -170.6499         0.034109   
    373. D(H  43,C  29,C  27,C  36)   -179.9717         0.024587   
    374. D(H  43,C  29,C  27,H  28)      0.8133         0.024587   
    375. D(C  26,C  29,C  27,C  36)      0.2518         0.024587   
    376. D(C  26,C  29,C  27,H  28)   -178.9632         0.024587   
    377. D(H  43,C  29,C  26,H  45)      0.5498         0.024590   
    378. D(H  43,C  29,C  26,C  39)   -178.5004         0.024590   
    379. D(C  27,C  29,C  26,H  45)   -179.6751         0.024590   
    380. D(C  27,C  29,C  26,C  39)      1.2747         0.024590   
    381. D(C  40,C  30,C  25,C  36)    -25.4137         0.020365   
    382. D(C  40,C  30,C  25,N   1)    157.1435         0.020365   
    383. D(N   2,C  30,C  25,C  36)    158.5283         0.020365   
    384. D(N   2,C  30,C  25,N   1)    -18.9145         0.020365   
    385. D(C  40,C  30,N   2,C   8)   -166.8497         0.031176   
    386. D(C  25,C  30,N   2,C   8)      9.5635         0.031176   
    387. D(C  39,N  31,Ni  0,N  77)     86.5853         0.002332   
    388. D(C  39,N  31,Ni  0,N  47)      8.0741         0.002332   
    389. D(C  39,N  31,Ni  0,N   9)   -171.9259         0.002332   
    390. D(C  39,N  31,Ni  0,N   1)   -171.9259         0.002332   
    391. D(C  36,N  31,Ni  0,N  47)   -179.4918         0.002332   
    392. D(C  36,N  31,Ni  0,N  55)    101.9969         0.002332   
    393. D(C  36,N  31,Ni  0,N   9)      0.5082         0.002332   
    394. D(C  39,N  31,Ni  0,N  55)    -70.4371         0.002332   
    395. D(C  36,N  31,Ni  0,N   1)      0.5082         0.002332   
    396. D(C  36,N  31,Ni  0,N  77)   -100.9806         0.002332   
    397. D(C  40,N  33,C  32,H  44)    179.5362         0.030738   
    398. D(C  40,N  33,C  32,C  37)     -0.2166         0.030738   
    399. D(C  27,C  36,N  31,C  39)      2.2717         0.029634   
    400. D(C  27,C  36,N  31,Ni  0)   -170.6327         0.029634   
    401. D(C  25,C  36,N  31,C  39)    178.0531         0.029634   
    402. D(C  25,C  36,N  31,Ni  0)      5.1487         0.029634   
    403. D(N  31,C  36,C  27,C  29)     -2.0558         0.024263   
    404. D(N  31,C  36,C  27,H  28)    177.1518         0.024263   
    405. D(C  25,C  36,C  27,C  29)   -177.3971         0.024263   
    406. D(C  25,C  36,C  27,H  28)      1.8106         0.024263   
    407. D(N  31,C  36,C  25,C  30)    171.7736         0.013612   
    408. D(N  31,C  36,C  25,N   1)    -10.7359         0.013612   
    409. D(C  27,C  36,C  25,C  30)    -12.6223         0.013612   
    410. D(C  27,C  36,C  25,N   1)    164.8681         0.013612   
    411. D(C  41,C  37,C  32,H  44)   -179.4105         0.023759   
    412. D(C  41,C  37,C  32,N  33)      0.3316         0.023759   
    413. D(H  38,C  37,C  32,H  44)      0.4752         0.023759   
    414. D(H  38,C  37,C  32,N  33)   -179.7827         0.023759   
    415. D(N  31,C  39,C  26,C  29)     -1.1037         0.024685   
    416. D(H  46,C  39,N  31,C  36)    179.9527         0.034502   
    417. D(H  46,C  39,N  31,Ni  0)     -8.0093         0.034502   
    418. D(C  26,C  39,N  31,C  36)     -0.6733         0.034502   
    419. D(C  26,C  39,N  31,Ni  0)    171.3647         0.034502   
    420. D(H  46,C  39,C  26,H  45)     -0.8204         0.024685   
    421. D(H  46,C  39,C  26,C  29)    178.2456         0.024685   
    422. D(N  31,C  39,C  26,H  45)    179.8304         0.024685   
    423. D(N  33,C  40,C  34,C  41)      0.6179         0.023769   
    424. D(C  30,C  40,C  34,C  41)    177.2659         0.023769   
    425. D(C  30,C  40,C  34,H  35)     -3.0988         0.023769   
    426. D(C  34,C  40,N  33,C  32)     -0.2680         0.028419   
    427. D(C  34,C  40,C  30,N   2)    -35.1953         0.013537   
    428. D(N  33,C  40,C  30,C  25)    -34.4529         0.013537   
    429. D(C  34,C  40,C  30,C  25)    148.6938         0.013537   
    430. D(N  33,C  40,C  34,H  35)   -179.7467         0.023769   
    431. D(N  33,C  40,C  30,N   2)    141.6581         0.013537   
    432. D(C  30,C  40,N  33,C  32)   -177.0683         0.028419   
    433. D(H  42,C  41,C  37,H  38)      0.1501         0.024246   
    434. D(H  42,C  41,C  37,C  32)   -179.9658         0.024246   
    435. D(C  34,C  41,C  37,H  38)   -179.8505         0.024246   
    436. D(C  34,C  41,C  37,C  32)      0.0336         0.024246   
    437. D(H  42,C  41,C  34,C  40)    179.5190         0.024297   
    438. D(H  42,C  41,C  34,H  35)     -0.1119         0.024297   
    439. D(C  37,C  41,C  34,C  40)     -0.4804         0.024297   
    440. D(C  37,C  41,C  34,H  35)    179.8888         0.024297   
    441. D(C  71,N  47,N   1,C  25)     90.0000         0.001500   
    442. D(C  71,N  47,N   1,C   3)    -90.0000         0.001500   
    443. D(C  49,N  47,N   1,C  25)    -90.0000         0.001500   
    444. D(C  49,N  47,N   1,C   3)     90.0000         0.001500   
    445. D(C  71,N  47,Ni  0,N  77)      6.8234         0.003114   
    446. D(C  71,N  47,Ni  0,N  55)   -173.1766         0.003114   
    447. D(C  71,N  47,Ni  0,N  31)     96.8234         0.003114   
    448. D(C  71,N  47,Ni  0,N   9)    -83.1766         0.003114   
    449. D(C  49,N  47,Ni  0,N  77)   -173.1766         0.003114   
    450. D(C  49,N  47,Ni  0,N  55)      6.8234         0.003114   
    451. D(C  49,N  47,Ni  0,N  31)    -83.1766         0.003114   
    452. D(C  49,N  47,Ni  0,N   9)     96.8234         0.003114   
    453. D(C  60,C  49,N  47,C  71)    168.4855         0.034109   
    454. D(C  60,C  49,N  47,Ni  0)    -11.5145         0.034109   
    455. D(C  54,C  49,N  47,C  71)     -9.3501         0.034109   
    456. D(C  54,C  49,N  47,Ni  0)    170.6499         0.034109   
    457. D(H  67,C  53,C  51,C  60)    179.9717         0.024587   
    458. D(H  67,C  53,C  51,H  52)     -0.8133         0.024587   
    459. D(C  50,C  53,C  51,C  60)     -0.2518         0.024587   
    460. D(C  50,C  53,C  51,H  52)    178.9632         0.024587   
    461. D(H  67,C  53,C  50,H  69)     -0.5498         0.024590   
    462. D(H  67,C  53,C  50,C  63)    178.5004         0.024590   
    463. D(C  51,C  53,C  50,H  69)    179.6751         0.024590   
    464. D(C  51,C  53,C  50,C  63)     -1.2747         0.024590   
    465. D(C  64,C  54,C  49,C  60)     25.4137         0.020365   
    466. D(C  64,C  54,C  49,N  47)   -157.1435         0.020365   
    467. D(N  48,C  54,C  49,C  60)   -158.5283         0.020365   
    468. D(N  48,C  54,C  49,N  47)     18.9145         0.020365   
    469. D(C  64,C  54,N  48,C  76)    166.8497         0.031176   
    470. D(C  49,C  54,N  48,C  76)     -9.5635         0.031176   
    471. D(C  63,N  55,Ni  0,N  77)    171.9259         0.002332   
    472. D(C  63,N  55,Ni  0,N  31)    -86.5853         0.002332   
    473. D(C  63,N  55,Ni  0,N   9)     70.4371         0.002332   
    474. D(C  63,N  55,Ni  0,N   1)     -8.0741         0.002332   
    475. D(C  60,N  55,Ni  0,N  77)     -0.5082         0.002332   
    476. D(C  60,N  55,Ni  0,N  47)     -0.5082         0.002332   
    477. D(C  60,N  55,Ni  0,N  31)    100.9806         0.002332   
    478. D(C  63,N  55,Ni  0,N  47)    171.9259         0.002332   
    479. D(C  60,N  55,Ni  0,N   9)   -101.9969         0.002332   
    480. D(C  60,N  55,Ni  0,N   1)    179.4918         0.002332   
    481. D(C  64,N  57,C  56,H  68)   -179.5362         0.030738   
    482. D(C  64,N  57,C  56,C  61)      0.2166         0.030738   
    483. D(C  51,C  60,N  55,C  63)     -2.2717         0.029634   
    484. D(C  51,C  60,N  55,Ni  0)    170.6327         0.029634   
    485. D(C  49,C  60,N  55,C  63)   -178.0531         0.029634   
    486. D(C  49,C  60,N  55,Ni  0)     -5.1487         0.029634   
    487. D(N  55,C  60,C  51,C  53)      2.0558         0.024263   
    488. D(N  55,C  60,C  51,H  52)   -177.1518         0.024263   
    489. D(C  49,C  60,C  51,C  53)    177.3971         0.024263   
    490. D(C  49,C  60,C  51,H  52)     -1.8106         0.024263   
    491. D(N  55,C  60,C  49,C  54)   -171.7736         0.013612   
    492. D(N  55,C  60,C  49,N  47)     10.7359         0.013612   
    493. D(C  51,C  60,C  49,C  54)     12.6223         0.013612   
    494. D(C  51,C  60,C  49,N  47)   -164.8681         0.013612   
    495. D(C  65,C  61,C  56,H  68)    179.4105         0.023759   
    496. D(C  65,C  61,C  56,N  57)     -0.3316         0.023759   
    497. D(H  62,C  61,C  56,H  68)     -0.4752         0.023759   
    498. D(H  62,C  61,C  56,N  57)    179.7827         0.023759   
    499. D(H  70,C  63,N  55,C  60)   -179.9527         0.034502   
    500. D(H  70,C  63,N  55,Ni  0)      8.0093         0.034502   
    501. D(C  50,C  63,N  55,C  60)      0.6733         0.034502   
    502. D(C  50,C  63,N  55,Ni  0)   -171.3647         0.034502   
    503. D(H  70,C  63,C  50,H  69)      0.8204         0.024685   
    504. D(H  70,C  63,C  50,C  53)   -178.2456         0.024685   
    505. D(N  55,C  63,C  50,H  69)   -179.8304         0.024685   
    506. D(N  55,C  63,C  50,C  53)      1.1037         0.024685   
    507. D(N  57,C  64,C  58,C  65)     -0.6179         0.023769   
    508. D(N  57,C  64,C  58,H  59)    179.7467         0.023769   
    509. D(C  54,C  64,C  58,C  65)   -177.2659         0.023769   
    510. D(C  54,C  64,C  58,H  59)      3.0988         0.023769   
    511. D(C  58,C  64,N  57,C  56)      0.2680         0.028419   
    512. D(C  54,C  64,N  57,C  56)    177.0683         0.028419   
    513. D(C  58,C  64,C  54,C  49)   -148.6938         0.013537   
    514. D(C  58,C  64,C  54,N  48)     35.1953         0.013537   
    515. D(N  57,C  64,C  54,C  49)     34.4529         0.013537   
    516. D(N  57,C  64,C  54,N  48)   -141.6581         0.013537   
    517. D(H  66,C  65,C  61,H  62)     -0.1501         0.024246   
    518. D(H  66,C  65,C  61,C  56)    179.9658         0.024246   
    519. D(C  58,C  65,C  61,H  62)    179.8505         0.024246   
    520. D(C  58,C  65,C  61,C  56)     -0.0336         0.024246   
    521. D(H  66,C  65,C  58,C  64)   -179.5190         0.024297   
    522. D(H  66,C  65,C  58,H  59)      0.1119         0.024297   
    523. D(C  61,C  65,C  58,C  64)      0.4804         0.024297   
    524. D(C  61,C  65,C  58,H  59)   -179.8888         0.024297   
    525. D(C  82,C  71,N  47,C  49)    168.4855         0.034109   
    526. D(C  82,C  71,N  47,Ni  0)    -11.5145         0.034109   
    527. D(C  76,C  71,N  47,C  49)     -9.3501         0.034109   
    528. D(C  76,C  71,N  47,Ni  0)    170.6499         0.034109   
    529. D(H  89,C  75,C  73,C  82)    179.9717         0.024587   
    530. D(H  89,C  75,C  73,H  74)     -0.8133         0.024587   
    531. D(C  72,C  75,C  73,C  82)     -0.2518         0.024587   
    532. D(C  72,C  75,C  73,H  74)    178.9632         0.024587   
    533. D(H  89,C  75,C  72,H  91)     -0.5498         0.024590   
    534. D(H  89,C  75,C  72,C  85)    178.5004         0.024590   
    535. D(C  73,C  75,C  72,H  91)    179.6751         0.024590   
    536. D(C  73,C  75,C  72,C  85)     -1.2747         0.024590   
    537. D(C  86,C  76,C  71,C  82)     25.4137         0.020365   
    538. D(C  86,C  76,C  71,N  47)   -157.1435         0.020365   
    539. D(N  48,C  76,C  71,C  82)   -158.5283         0.020365   
    540. D(N  48,C  76,C  71,N  47)     18.9145         0.020365   
    541. D(C  86,C  76,N  48,C  54)    166.8497         0.031176   
    542. D(C  71,C  76,N  48,C  54)     -9.5635         0.031176   
    543. D(C  82,N  77,Ni  0,N   1)    179.4918         0.002332   
    544. D(C  85,N  77,Ni  0,N  55)    171.9259         0.002332   
    545. D(C  85,N  77,Ni  0,N  47)    171.9259         0.002332   
    546. D(C  85,N  77,Ni  0,N  31)     70.4371         0.002332   
    547. D(C  85,N  77,Ni  0,N   9)    -86.5853         0.002332   
    548. D(C  85,N  77,Ni  0,N   1)     -8.0741         0.002332   
    549. D(C  82,N  77,Ni  0,N  55)     -0.5082         0.002332   
    550. D(C  82,N  77,Ni  0,N  47)     -0.5082         0.002332   
    551. D(C  82,N  77,Ni  0,N  31)   -101.9969         0.002332   
    552. D(C  82,N  77,Ni  0,N   9)    100.9806         0.002332   
    553. D(C  86,N  79,C  78,H  90)   -179.5362         0.030738   
    554. D(C  86,N  79,C  78,C  83)      0.2166         0.030738   
    555. D(C  73,C  82,N  77,C  85)     -2.2717         0.029634   
    556. D(C  73,C  82,N  77,Ni  0)    170.6327         0.029634   
    557. D(C  71,C  82,N  77,C  85)   -178.0531         0.029634   
    558. D(C  71,C  82,N  77,Ni  0)     -5.1487         0.029634   
    559. D(N  77,C  82,C  73,C  75)      2.0558         0.024263   
    560. D(N  77,C  82,C  73,H  74)   -177.1518         0.024263   
    561. D(C  71,C  82,C  73,C  75)    177.3971         0.024263   
    562. D(C  71,C  82,C  73,H  74)     -1.8106         0.024263   
    563. D(N  77,C  82,C  71,C  76)   -171.7736         0.013612   
    564. D(N  77,C  82,C  71,N  47)     10.7359         0.013612   
    565. D(C  73,C  82,C  71,C  76)     12.6223         0.013612   
    566. D(C  73,C  82,C  71,N  47)   -164.8681         0.013612   
    567. D(C  87,C  83,C  78,H  90)    179.4105         0.023759   
    568. D(C  87,C  83,C  78,N  79)     -0.3316         0.023759   
    569. D(H  84,C  83,C  78,H  90)     -0.4752         0.023759   
    570. D(H  84,C  83,C  78,N  79)    179.7827         0.023759   
    571. D(H  92,C  85,N  77,C  82)   -179.9527         0.034502   
    572. D(H  92,C  85,N  77,Ni  0)      8.0093         0.034502   
    573. D(C  72,C  85,N  77,C  82)      0.6733         0.034502   
    574. D(C  72,C  85,N  77,Ni  0)   -171.3647         0.034502   
    575. D(H  92,C  85,C  72,H  91)      0.8204         0.024685   
    576. D(H  92,C  85,C  72,C  75)   -178.2456         0.024685   
    577. D(N  77,C  85,C  72,H  91)   -179.8304         0.024685   
    578. D(N  77,C  85,C  72,C  75)      1.1037         0.024685   
    579. D(N  79,C  86,C  80,C  87)     -0.6179         0.023769   
    580. D(N  79,C  86,C  80,H  81)    179.7467         0.023769   
    581. D(C  76,C  86,C  80,C  87)   -177.2659         0.023769   
    582. D(C  76,C  86,C  80,H  81)      3.0988         0.023769   
    583. D(C  80,C  86,N  79,C  78)      0.2680         0.028419   
    584. D(C  76,C  86,N  79,C  78)    177.0683         0.028419   
    585. D(C  80,C  86,C  76,C  71)   -148.6938         0.013537   
    586. D(C  80,C  86,C  76,N  48)     35.1953         0.013537   
    587. D(N  79,C  86,C  76,C  71)     34.4529         0.013537   
    588. D(N  79,C  86,C  76,N  48)   -141.6581         0.013537   
    589. D(H  88,C  87,C  83,H  84)     -0.1501         0.024246   
    590. D(H  88,C  87,C  83,C  78)    179.9658         0.024246   
    591. D(C  80,C  87,C  83,H  84)    179.8505         0.024246   
    592. D(C  80,C  87,C  83,C  78)     -0.0336         0.024246   
    593. D(H  88,C  87,C  80,C  86)   -179.5190         0.024297   
    594. D(H  88,C  87,C  80,H  81)      0.1119         0.024297   
    595. D(C  83,C  87,C  80,C  86)      0.4804         0.024297   
    596. D(C  83,C  87,C  80,H  81)   -179.8888         0.024297   
    -----------------------------------------------------------------

Number of atoms                         .... 93
Number of degrees of freedom            .... 596

         *************************************************************
         *                GEOMETRY OPTIMIZATION CYCLE   1            *
         *************************************************************
---------------------------------
CARTESIAN COORDINATES (ANGSTROEM)
---------------------------------
  Ni     0.000000    0.000000    0.000000
  N      0.000000    0.000000    2.022675
  N      0.000000    0.000000    4.712268
  C     -1.172167    0.227546    2.653816
  C     -4.408622    0.000000   -0.095127
  C     -3.683596    0.083969    2.213896
  H     -3.911823    0.063590    3.270619
  C     -4.718829   -0.005481    1.272335
  C     -1.104881    0.425984    4.065166
  N     -2.063651    0.150186    0.429508
  C     -3.618275    2.912541    5.013229
  N     -2.733523    2.195136    4.286369
  C     -2.357844    0.773415    6.218507
  H     -1.839208   -0.073458    6.653575
  C     -2.356789    0.182621    1.765662
  C     -3.927410    2.610596    6.351873
  H     -4.648088    3.215222    6.892531
  C     -3.061142    0.068196   -0.475206
  C     -2.115184    1.138991    4.882086
  C     -3.284531    1.521458    6.961635
  H     -3.499186    1.259339    7.993005
  H     -5.748992   -0.081760    1.604941
  H     -4.087450    3.752754    4.509921
  H     -5.182006   -0.062269   -0.852555
  H     -2.775345    0.046475   -1.519919
  C      1.172167   -0.227546    2.653816
  C      4.408622    0.000000   -0.095127
  C      3.683596   -0.083969    2.213896
  H      3.911823   -0.063590    3.270619
  C      4.718829    0.005481    1.272335
  C      1.104881   -0.425984    4.065166
  N      2.063651   -0.150186    0.429508
  C      3.618275   -2.912541    5.013229
  N      2.733523   -2.195136    4.286369
  C      2.357844   -0.773415    6.218507
  H      1.839208    0.073458    6.653575
  C      2.356789   -0.182621    1.765662
  C      3.927410   -2.610596    6.351873
  H      4.648088   -3.215222    6.892531
  C      3.061142   -0.068196   -0.475206
  C      2.115184   -1.138991    4.882086
  C      3.284531   -1.521458    6.961635
  H      3.499186   -1.259339    7.993005
  H      5.748992    0.081760    1.604941
  H      4.087450   -3.752754    4.509921
  H      5.182006    0.062269   -0.852555
  H      2.775345   -0.046475   -1.519919
  N      0.000000    0.000000   -2.022675
  N      0.000000    0.000000   -4.712268
  C      0.227546    1.172167   -2.653816
  C      0.000000    4.408622    0.095127
  C      0.083969    3.683596   -2.213896
  H      0.063590    3.911823   -3.270619
  C     -0.005481    4.718829   -1.272335
  C      0.425984    1.104881   -4.065166
  N      0.150186    2.063651   -0.429508
  C      2.912541    3.618275   -5.013229
  N      2.195136    2.733523   -4.286369
  C      0.773415    2.357844   -6.218507
  H     -0.073458    1.839208   -6.653575
  C      0.182621    2.356789   -1.765662
  C      2.610596    3.927410   -6.351873
  H      3.215222    4.648088   -6.892531
  C      0.068196    3.061142    0.475206
  C      1.138991    2.115184   -4.882086
  C      1.521458    3.284531   -6.961635
  H      1.259339    3.499186   -7.993005
  H     -0.081760    5.748992   -1.604941
  H      3.752754    4.087450   -4.509921
  H     -0.062269    5.182006    0.852555
  H      0.046475    2.775345    1.519919
  C     -0.227546   -1.172167   -2.653816
  C      0.000000   -4.408622    0.095127
  C     -0.083969   -3.683596   -2.213896
  H     -0.063590   -3.911823   -3.270619
  C      0.005481   -4.718829   -1.272335
  C     -0.425984   -1.104881   -4.065166
  N     -0.150186   -2.063651   -0.429508
  C     -2.912541   -3.618275   -5.013229
  N     -2.195136   -2.733523   -4.286369
  C     -0.773415   -2.357844   -6.218507
  H      0.073458   -1.839208   -6.653575
  C     -0.182621   -2.356789   -1.765662
  C     -2.610596   -3.927410   -6.351873
  H     -3.215222   -4.648088   -6.892531
  C     -0.068196   -3.061142    0.475206
  C     -1.138991   -2.115184   -4.882086
  C     -1.521458   -3.284531   -6.961635
  H     -1.259339   -3.499186   -7.993005
  H      0.081760   -5.748992   -1.604941
  H     -3.752754   -4.087450   -4.509921
  H      0.062269   -5.182006    0.852555
  H     -0.046475   -2.775345    1.519919

----------------------------
CARTESIAN COORDINATES (A.U.)
----------------------------
  NO LB      ZA    FRAG     MASS         X           Y           Z
   0 Ni   28.0000    0    58.700    0.000000    0.000000    0.000000
   1 N     7.0000    0    14.007    0.000000    0.000000    3.822302
   2 N     7.0000    0    14.007    0.000000    0.000000    8.904896
   3 C     6.0000    0    12.011   -2.215075    0.430000    5.014985
   4 C     6.0000    0    12.011   -8.331088    0.000000   -0.179764
   5 C     6.0000    0    12.011   -6.960988    0.158678    4.183657
   6 H     1.0000    0     1.008   -7.392274    0.120168    6.180574
   7 C     6.0000    0    12.011   -8.917294   -0.010358    2.404365
   8 C     6.0000    0    12.011   -2.087923    0.804993    7.682050
   9 N     7.0000    0    14.007   -3.899735    0.283810    0.811652
  10 C     6.0000    0    12.011   -6.837549    5.503905    9.473630
  11 N     7.0000    0    14.007   -5.165610    4.148206    8.100064
  12 C     6.0000    0    12.011   -4.455679    1.461543   11.751275
  13 H     1.0000    0     1.008   -3.475599   -0.138816   12.573435
  14 C     6.0000    0    12.011   -4.453686    0.345104    3.336618
  15 C     6.0000    0    12.011   -7.421729    4.933311   12.003300
  16 H     1.0000    0     1.008   -8.783613    6.075889   13.024996
  17 C     6.0000    0    12.011   -5.784720    0.128872   -0.898009
  18 C     6.0000    0    12.011   -3.997118    2.152381    9.225806
  19 C     6.0000    0    12.011   -6.206864    2.875139   13.155584
  20 H     1.0000    0     1.008   -6.612503    2.379806   15.104590
  21 H     1.0000    0     1.008  -10.864020   -0.154504    3.032899
  22 H     1.0000    0     1.008   -7.724161    7.091677    8.522516
  23 H     1.0000    0     1.008   -9.792572   -0.117671   -1.611095
  24 H     1.0000    0     1.008   -5.244642    0.087825   -2.872231
  25 C     6.0000    0    12.011    2.215075   -0.430000    5.014985
  26 C     6.0000    0    12.011    8.331088    0.000000   -0.179764
  27 C     6.0000    0    12.011    6.960988   -0.158678    4.183657
  28 H     1.0000    0     1.008    7.392274   -0.120168    6.180574
  29 C     6.0000    0    12.011    8.917294    0.010358    2.404365
  30 C     6.0000    0    12.011    2.087923   -0.804993    7.682050
  31 N     7.0000    0    14.007    3.899735   -0.283810    0.811652
  32 C     6.0000    0    12.011    6.837549   -5.503905    9.473630
  33 N     7.0000    0    14.007    5.165610   -4.148206    8.100064
  34 C     6.0000    0    12.011    4.455679   -1.461543   11.751275
  35 H     1.0000    0     1.008    3.475599    0.138816   12.573435
  36 C     6.0000    0    12.011    4.453686   -0.345104    3.336618
  37 C     6.0000    0    12.011    7.421729   -4.933311   12.003300
  38 H     1.0000    0     1.008    8.783613   -6.075889   13.024996
  39 C     6.0000    0    12.011    5.784720   -0.128872   -0.898009
  40 C     6.0000    0    12.011    3.997118   -2.152381    9.225806
  41 C     6.0000    0    12.011    6.206864   -2.875139   13.155584
  42 H     1.0000    0     1.008    6.612503   -2.379806   15.104590
  43 H     1.0000    0     1.008   10.864020    0.154504    3.032899
  44 H     1.0000    0     1.008    7.724161   -7.091677    8.522516
  45 H     1.0000    0     1.008    9.792572    0.117671   -1.611095
  46 H     1.0000    0     1.008    5.244642   -0.087825   -2.872231
  47 N     7.0000    0    14.007    0.000000    0.000000   -3.822302
  48 N     7.0000    0    14.007    0.000000    0.000000   -8.904896
  49 C     6.0000    0    12.011    0.430000    2.215075   -5.014985
  50 C     6.0000    0    12.011    0.000000    8.331088    0.179764
  51 C     6.0000    0    12.011    0.158678    6.960988   -4.183657
  52 H     1.0000    0     1.008    0.120168    7.392274   -6.180574
  53 C     6.0000    0    12.011   -0.010358    8.917294   -2.404365
  54 C     6.0000    0    12.011    0.804993    2.087923   -7.682050
  55 N     7.0000    0    14.007    0.283810    3.899735   -0.811652
  56 C     6.0000    0    12.011    5.503905    6.837549   -9.473630
  57 N     7.0000    0    14.007    4.148206    5.165610   -8.100064
  58 C     6.0000    0    12.011    1.461543    4.455679  -11.751275
  59 H     1.0000    0     1.008   -0.138816    3.475599  -12.573435
  60 C     6.0000    0    12.011    0.345104    4.453686   -3.336618
  61 C     6.0000    0    12.011    4.933311    7.421729  -12.003300
  62 H     1.0000    0     1.008    6.075889    8.783613  -13.024996
  63 C     6.0000    0    12.011    0.128872    5.784720    0.898009
  64 C     6.0000    0    12.011    2.152381    3.997118   -9.225806
  65 C     6.0000    0    12.011    2.875139    6.206864  -13.155584
  66 H     1.0000    0     1.008    2.379806    6.612503  -15.104590
  67 H     1.0000    0     1.008   -0.154504   10.864020   -3.032899
  68 H     1.0000    0     1.008    7.091677    7.724161   -8.522516
  69 H     1.0000    0     1.008   -0.117671    9.792572    1.611095
  70 H     1.0000    0     1.008    0.087825    5.244642    2.872231
  71 C     6.0000    0    12.011   -0.430000   -2.215075   -5.014985
  72 C     6.0000    0    12.011    0.000000   -8.331088    0.179764
  73 C     6.0000    0    12.011   -0.158678   -6.960988   -4.183657
  74 H     1.0000    0     1.008   -0.120168   -7.392274   -6.180574
  75 C     6.0000    0    12.011    0.010358   -8.917294   -2.404365
  76 C     6.0000    0    12.011   -0.804993   -2.087923   -7.682050
  77 N     7.0000    0    14.007   -0.283810   -3.899735   -0.811652
  78 C     6.0000    0    12.011   -5.503905   -6.837549   -9.473630
  79 N     7.0000    0    14.007   -4.148206   -5.165610   -8.100064
  80 C     6.0000    0    12.011   -1.461543   -4.455679  -11.751275
  81 H     1.0000    0     1.008    0.138816   -3.475599  -12.573435
  82 C     6.0000    0    12.011   -0.345104   -4.453686   -3.336618
  83 C     6.0000    0    12.011   -4.933311   -7.421729  -12.003300
  84 H     1.0000    0     1.008   -6.075889   -8.783613  -13.024996
  85 C     6.0000    0    12.011   -0.128872   -5.784720    0.898009
  86 C     6.0000    0    12.011   -2.152381   -3.997118   -9.225806
  87 C     6.0000    0    12.011   -2.875139   -6.206864  -13.155584
  88 H     1.0000    0     1.008   -2.379806   -6.612503  -15.104590
  89 H     1.0000    0     1.008    0.154504  -10.864020   -3.032899
  90 H     1.0000    0     1.008   -7.091677   -7.724161   -8.522516
  91 H     1.0000    0     1.008    0.117671   -9.792572    1.611095
  92 H     1.0000    0     1.008   -0.087825   -5.244642    2.872231

--------------------------------
INTERNAL COORDINATES (ANGSTROEM)
--------------------------------
 Ni     0   0   0     0.000000000000     0.00000000     0.00000000
 N      1   0   0     2.022675000000     0.00000000     0.00000000
 N      2   1   0     2.689593000000   180.00000000     0.00000000
 C      2   1   3     1.350589360200   117.85968419     0.00000000
 C      4   2   1     4.252423516818   110.45292718    12.17270960
 C      5   4   2     2.421631827542    32.20979294   167.31852587
 H      6   5   4     1.081279966474   150.22665522   183.05925029
 C      5   4   2     1.402216369058    62.49421471   166.60780638
 C      3   2   4     1.349431506532    61.34484915   349.90184482
 N      1   2   4     2.113217548304    78.27302114   353.17660689
 C      7   6   5     3.352518730866   118.26099152   251.28812080
 N     11   7   6     1.351214821977    47.66511359   300.96834880
 C     12  11   7     2.428082075204    89.09078138   276.29932609
 H     13  12  11     1.084186950322   148.28812662   180.18084717
 C     10   1   2     1.368316274837   114.16484907     0.50815778
 C     11   7   6     1.406663780008   107.03781269   181.79476475
 H     16  11   7     1.085016337446   120.03663519   230.38808121
 C     10   1   2     1.349154578607   125.54840546   188.07408510
 C     12  11   7     1.361126050017   118.29387732   276.43012195
 C     13  12  11     1.403765062324    90.40647594     0.30662289
 H     20  13  12     1.085590722181   120.31849876   179.81072720
 H      8   5   4     1.085210138013   120.60874478   180.97605343
 H     11   7   6     1.086002766506   112.25561024    47.02938293
 H      5   4   2     1.084295815265   175.94073299   351.74631352
 H     18  10   1     1.083317580130   116.92662736   351.99070239
 C      2   1  10     1.350589360200   117.85968419   173.17660689
 C     26   2   1     4.252423516818   110.45292718    12.17270960
 C     27  26   2     2.421631827542    32.20979294   167.31852587
 H     28  27  26     1.081279966474   150.22665522   183.05925029
 C     27  26   2     1.402216369058    62.49421471   166.60780638
 C      3   2   4     1.349431506532    61.34484915   169.90184482
 N      1   2   4     2.113217548304    78.27302114   173.17660689
 C     29  28  27     3.352518730866   118.26099152   251.28812080
 N     33  29  28     1.351214821977    47.66511359   300.96834880
 C     34  33  29     2.428082075204    89.09078138   276.29932609
 H     35  34  33     1.084186950322   148.28812662   180.18084717
 C     32   1   2     1.368316274837   114.16484907     0.50815778
 C     33  29  28     1.406663780008   107.03781269   181.79476475
 H     38  33  29     1.085016337446   120.03663519   230.38808121
 C     32   1   2     1.349154578607   125.54840546   188.07408510
 C     34  33  29     1.361126050017   118.29387732   276.43012195
 C     35  34  33     1.403765062324    90.40647594     0.30662289
 H     42  35  34     1.085590722181   120.31849876   179.81072720
 H     30  27  26     1.085210138013   120.60874478   180.97605343
 H     33  29  28     1.086002766506   112.25561024    47.02938293
 H     27  26   2     1.084295815265   175.94073299   351.74631352
 H     40  32   1     1.083317580130   116.92662736   351.99070239
 N      1   2   4     2.022675000000   180.00000000     0.00000000
 N     48   1   2     2.689593000000   180.00000000     0.00000000
 C     48   1   2     1.350589360200   117.85968419     0.00000000
 C     50  48   1     4.252423516818   110.45292718   347.82729040
 C     51  50  48     2.421631827542    32.20979294   192.68147413
 H     52  51  50     1.081279966474   150.22665522   176.94074971
 C     51  50  48     1.402216369058    62.49421471   193.39219362
 C     49  48  50     1.349431506532    61.34484915    10.09815518
 N      1   2   4     2.113217548304   101.72697886    83.17660689
 C     53  52  51     3.352518730866   118.26099152   108.71187920
 N     57  53  52     1.351214821977    47.66511359    59.03165120
 C     58  57  53     2.428082075204    89.09078138    83.70067391
 H     59  58  57     1.084186950322   148.28812662   179.81915283
 C     56   1   2     1.368316274837   114.16484907   179.49184222
 C     57  53  52     1.406663780008   107.03781269   178.20523525
 H     62  57  53     1.085016337446   120.03663519   129.61191879
 C     56   1   2     1.349154578607   125.54840546   351.92591490
 C     58  57  53     1.361126050017   118.29387732    83.56987805
 C     59  58  57     1.403765062324    90.40647594   359.69337711
 H     66  59  58     1.085590722181   120.31849876   180.18927280
 H     54  51  50     1.085210138013   120.60874478   179.02394657
 H     57  53  52     1.086002766506   112.25561024   312.97061707
 H     51  50  48     1.084295815265   175.94073299     8.25368648
 H     64  56   1     1.083317580130   116.92662736     8.00929761
 C     48   1   2     1.350589360200   117.85968419     0.00000000
 C     72  48   1     4.252423516818   110.45292718   347.82729040
 C     73  72  48     2.421631827542    32.20979294   192.68147413
 H     74  73  72     1.081279966474   150.22665522   176.94074971
 C     73  72  48     1.402216369058    62.49421471   193.39219362
 C     49  48  50     1.349431506532    61.34484915   190.09815518
 N      1   2   4     2.113217548304   101.72697886   263.17660689
 C     75  74  73     3.352518730866   118.26099152   108.71187920
 N     79  75  74     1.351214821977    47.66511359    59.03165120
 C     80  79  75     2.428082075204    89.09078138    83.70067391
 H     81  80  79     1.084186950322   148.28812662   179.81915283
 C     78   1   2     1.368316274837   114.16484907   179.49184222
 C     79  75  74     1.406663780008   107.03781269   178.20523525
 H     84  79  75     1.085016337446   120.03663519   129.61191879
 C     78   1   2     1.349154578607   125.54840546   351.92591490
 C     80  79  75     1.361126050017   118.29387732    83.56987805
 C     81  80  79     1.403765062324    90.40647594   359.69337711
 H     88  81  80     1.085590722181   120.31849876   180.18927280
 H     76  73  72     1.085210138013   120.60874478   179.02394657
 H     79  75  74     1.086002766506   112.25561024   312.97061707
 H     73  72  48     1.084295815265   175.94073299     8.25368648
 H     86  78   1     1.083317580130   116.92662736     8.00929761

---------------------------
INTERNAL COORDINATES (A.U.)
---------------------------
 Ni     0   0   0     0.000000000000     0.00000000     0.00000000
 N      1   0   0     3.822301807929     0.00000000     0.00000000
 N      2   1   0     5.082594181712   180.00000000     0.00000000
 C      2   1   3     2.552244010166   117.85968419     0.00000000
 C      4   2   1     8.035915852233   110.45292718    12.17270960
 C      5   4   2     4.576220951242    32.20979294   167.31852587
 H      6   5   4     2.043323010732   150.22665522   183.05925029
 C      5   4   2     2.649804918021    62.49421471   166.60780638
 C      3   2   4     2.550055983830    61.34484915   349.90184482
 N      1   2   4     3.993402427692    78.27302114   353.17660689
 C      7   6   5     6.335342260177   118.26099152   251.28812080
 N     11   7   6     2.553425961631    47.66511359   300.96834880
 C     12  11   7     4.588410152818    89.09078138   276.29932609
 H     13  12  11     2.048816414080   148.28812662   180.18084717
 C     10   1   2     2.585743024030   114.16484907     0.50815778
 C     11   7   6     2.658209306721   107.03781269   181.79476475
 H     16  11   7     2.050383728603   120.03663519   230.38808121
 C     10   1   2     2.549532665894   125.54840546   188.07408510
 C     12  11   7     2.572155468278   118.29387732   276.43012195
 C     13  12  11     2.652731524160    90.40647594     0.30662289
 H     20  13  12     2.051469158448   120.31849876   179.81072720
 H      8   5   4     2.050749958599   120.60874478   180.97605343
 H     11   7   6     2.052247809377   112.25561024    47.02938293
 H      5   4   2     2.049022139008   175.94073299   351.74631352
 H     18  10   1     2.047173542508   116.92662736   351.99070239
 C      2   1  10     2.552244010166   117.85968419   173.17660689
 C     26   2   1     8.035915852233   110.45292718    12.17270960
 C     27  26   2     4.576220951242    32.20979294   167.31852587
 H     28  27  26     2.043323010732   150.22665522   183.05925029
 C     27  26   2     2.649804918021    62.49421471   166.60780638
 C      3   2   4     2.550055983830    61.34484915   169.90184482
 N      1   2   4     3.993402427692    78.27302114   173.17660689
 C     29  28  27     6.335342260177   118.26099152   251.28812080
[...]
272:   3218.67   0.000636    3.21  0.000062  ( 0.000790  0.007812  0.000010)
273:   3218.68   0.001012    5.11  0.000098  (-0.000065 -0.000001  0.009904)
274:   3218.74   0.000000    0.00  0.000000  (-0.000009  0.000002 -0.000036)
275:   3246.20   0.000037    0.19  0.000004  ( 0.000019  0.001885  0.000187)
276:   3246.21   0.000018    0.09  0.000002  ( 0.000026  0.000279 -0.001279)
277:   3246.23   0.000036    0.18  0.000003  ( 0.001825 -0.000019 -0.000298)
278:   3246.24   0.000015    0.08  0.000001  (-0.000525 -0.000000 -0.001088)

* The epsilon (eps) is given for a Dirac delta lineshape.
** The dipole moment derivative (T) already includes vibrational overlap.

The first frequency considered to be a vibration is 6
The total number of vibrations considered is 273


--------------------------
THERMOCHEMISTRY AT 298.15K
--------------------------

Temperature         ... 298.15 K
Pressure            ... 1.00 atm
Total Mass          ... 835.57 AMU

Throughout the following assumptions are being made:
  (1) The electronic state is orbitally nondegenerate
      but the spin degeneracy is treated
  (2) There are no thermally accessible electronically excited states
  (3) Hindered rotations indicated by low frequency modes are not
      treated as such but are treated as vibrations and this may
      cause some error
  (4) All equations used are the standard statistical mechanics
      equations for an ideal gas
  (5) All vibrations are strictly harmonic

freq.      10.08  E(vib)   ...       0.58 
freq.      10.15  E(vib)   ...       0.58 
freq.      12.27  E(vib)   ...       0.58 
freq.      25.13  E(vib)   ...       0.56 
freq.      33.01  E(vib)   ...       0.55 
freq.      37.70  E(vib)   ...       0.54 
freq.      37.71  E(vib)   ...       0.54 
freq.      43.19  E(vib)   ...       0.53 
freq.      47.29  E(vib)   ...       0.53 
freq.      50.19  E(vib)   ...       0.52 
freq.      50.19  E(vib)   ...       0.52 
freq.      56.72  E(vib)   ...       0.52 
freq.      61.15  E(vib)   ...       0.51 
freq.      61.15  E(vib)   ...       0.51 
freq.      67.02  E(vib)   ...       0.50 
freq.      70.27  E(vib)   ...       0.50 
freq.      70.28  E(vib)   ...       0.50 
freq.      91.33  E(vib)   ...       0.47 
freq.      98.85  E(vib)   ...       0.46 
freq.     103.73  E(vib)   ...       0.46 
freq.     120.87  E(vib)   ...       0.44 
freq.     121.19  E(vib)   ...       0.44 
freq.     127.55  E(vib)   ...       0.43 
freq.     127.56  E(vib)   ...       0.43 
freq.     143.29  E(vib)   ...       0.41 
freq.     157.57  E(vib)   ...       0.40 
freq.     163.68  E(vib)   ...       0.39 
freq.     163.68  E(vib)   ...       0.39 
freq.     197.85  E(vib)   ...       0.35 
freq.     197.85  E(vib)   ...       0.35 
freq.     203.37  E(vib)   ...       0.35 
freq.     215.26  E(vib)   ...       0.34 
freq.     225.21  E(vib)   ...       0.33 
freq.     225.22  E(vib)   ...       0.33 
freq.     242.24  E(vib)   ...       0.31 
freq.     247.12  E(vib)   ...       0.31 
freq.     253.24  E(vib)   ...       0.30 
freq.     253.24  E(vib)   ...       0.30 
freq.     273.10  E(vib)   ...       0.29 
freq.     274.88  E(vib)   ...       0.28 
freq.     277.53  E(vib)   ...       0.28 
freq.     277.54  E(vib)   ...       0.28 
freq.     283.49  E(vib)   ...       0.28 
freq.     288.75  E(vib)   ...       0.27 
freq.     288.76  E(vib)   ...       0.27 
freq.     330.32  E(vib)   ...       0.24 
freq.     343.51  E(vib)   ...       0.23 
freq.     343.52  E(vib)   ...       0.23 
freq.     356.49  E(vib)   ...       0.22 
freq.     408.15  E(vib)   ...       0.19 
freq.     408.50  E(vib)   ...       0.19 
freq.     414.69  E(vib)   ...       0.19 
freq.     414.70  E(vib)   ...       0.19 
freq.     416.25  E(vib)   ...       0.18 
freq.     416.33  E(vib)   ...       0.18 
freq.     425.12  E(vib)   ...       0.18 
freq.     434.61  E(vib)   ...       0.17 
freq.     434.61  E(vib)   ...       0.17 
freq.     442.95  E(vib)   ...       0.17 
freq.     462.01  E(vib)   ...       0.16 
freq.     462.01  E(vib)   ...       0.16 
freq.     479.09  E(vib)   ...       0.15 
freq.     480.53  E(vib)   ...       0.15 
freq.     499.69  E(vib)   ...       0.14 
freq.     499.70  E(vib)   ...       0.14 
freq.     509.71  E(vib)   ...       0.14 
freq.     511.33  E(vib)   ...       0.14 
freq.     544.12  E(vib)   ...       0.12 
freq.     544.12  E(vib)   ...       0.12 
freq.     575.61  E(vib)   ...       0.11 
freq.     575.61  E(vib)   ...       0.11 
freq.     584.06  E(vib)   ...       0.11 
freq.     584.90  E(vib)   ...       0.11 
freq.     634.04  E(vib)   ...       0.09 
freq.     634.04  E(vib)   ...       0.09 
freq.     637.84  E(vib)   ...       0.09 
freq.     637.91  E(vib)   ...       0.09 
freq.     653.53  E(vib)   ...       0.08 
freq.     656.59  E(vib)   ...       0.08 
freq.     660.35  E(vib)   ...       0.08 
freq.     660.35  E(vib)   ...       0.08 
freq.     674.76  E(vib)   ...       0.08 
freq.     674.77  E(vib)   ...       0.08 
freq.     682.06  E(vib)   ...       0.08 
freq.     682.06  E(vib)   ...       0.08 
freq.     685.68  E(vib)   ...       0.07 
freq.     688.27  E(vib)   ...       0.07 
freq.     721.04  E(vib)   ...       0.07 
freq.     722.44  E(vib)   ...       0.07 
freq.     731.80  E(vib)   ...       0.06 
freq.     731.97  E(vib)   ...       0.06 
freq.     760.24  E(vib)   ...       0.06 
freq.     760.25  E(vib)   ...       0.06 
freq.     761.66  E(vib)   ...       0.06 
freq.     761.92  E(vib)   ...       0.06 
freq.     762.29  E(vib)   ...       0.06 
freq.     762.29  E(vib)   ...       0.06 
freq.     764.52  E(vib)   ...       0.06 
freq.     766.69  E(vib)   ...       0.06 
freq.     767.33  E(vib)   ...       0.06 
freq.     769.44  E(vib)   ...       0.06 
freq.     769.44  E(vib)   ...       0.06 
freq.     769.95  E(vib)   ...       0.05 
freq.     794.18  E(vib)   ...       0.05 
freq.     794.19  E(vib)   ...       0.05 
freq.     810.98  E(vib)   ...       0.05 
freq.     811.51  E(vib)   ...       0.05 
freq.     817.74  E(vib)   ...       0.05 
freq.     817.75  E(vib)   ...       0.05 
freq.     830.12  E(vib)   ...       0.04 
freq.     830.30  E(vib)   ...       0.04 
freq.     852.31  E(vib)   ...       0.04 
freq.     852.32  E(vib)   ...       0.04 
freq.     918.97  E(vib)   ...       0.03 
freq.     918.97  E(vib)   ...       0.03 
freq.     919.61  E(vib)   ...       0.03 
freq.     919.81  E(vib)   ...       0.03 
freq.     920.78  E(vib)   ...       0.03 
freq.     920.78  E(vib)   ...       0.03 
freq.     920.89  E(vib)   ...       0.03 
freq.     921.02  E(vib)   ...       0.03 
freq.     934.87  E(vib)   ...       0.03 
freq.     934.87  E(vib)   ...       0.03 
freq.     993.60  E(vib)   ...       0.02 
freq.     993.61  E(vib)   ...       0.02 
freq.     993.71  E(vib)   ...       0.02 
freq.     993.72  E(vib)   ...       0.02 
freq.     994.50  E(vib)   ...       0.02 
freq.     994.52  E(vib)   ...       0.02 
freq.     994.74  E(vib)   ...       0.02 
freq.     994.75  E(vib)   ...       0.02 
freq.    1014.15  E(vib)   ...       0.02 
freq.    1014.16  E(vib)   ...       0.02 
freq.    1015.35  E(vib)   ...       0.02 
freq.    1015.36  E(vib)   ...       0.02 
freq.    1025.37  E(vib)   ...       0.02 
freq.    1025.37  E(vib)   ...       0.02 
freq.    1025.41  E(vib)   ...       0.02 
freq.    1025.41  E(vib)   ...       0.02 
freq.    1027.82  E(vib)   ...       0.02 
freq.    1027.86  E(vib)   ...       0.02 
freq.    1027.89  E(vib)   ...       0.02 
freq.    1027.89  E(vib)   ...       0.02 
freq.    1033.06  E(vib)   ...       0.02 
freq.    1037.96  E(vib)   ...       0.02 
freq.    1037.96  E(vib)   ...       0.02 
freq.    1038.39  E(vib)   ...       0.02 
freq.    1060.29  E(vib)   ...       0.02 
freq.    1060.30  E(vib)   ...       0.02 
freq.    1063.85  E(vib)   ...       0.02 
freq.    1065.14  E(vib)   ...       0.02 
freq.    1068.55  E(vib)   ...       0.02 
freq.    1068.55  E(vib)   ...       0.02 
freq.    1082.29  E(vib)   ...       0.02 
freq.    1082.30  E(vib)   ...       0.02 
freq.    1088.89  E(vib)   ...       0.02 
freq.    1090.21  E(vib)   ...       0.02 
freq.    1104.74  E(vib)   ...       0.02 
freq.    1105.57  E(vib)   ...       0.02 
freq.    1119.91  E(vib)   ...       0.01 
freq.    1119.91  E(vib)   ...       0.01 
freq.    1121.39  E(vib)   ...       0.01 
freq.    1121.41  E(vib)   ...       0.01 
freq.    1127.25  E(vib)   ...       0.01 
freq.    1127.26  E(vib)   ...       0.01 
freq.    1139.13  E(vib)   ...       0.01 
freq.    1140.44  E(vib)   ...       0.01 
freq.    1175.89  E(vib)   ...       0.01 
freq.    1175.90  E(vib)   ...       0.01 
freq.    1176.00  E(vib)   ...       0.01 
freq.    1176.00  E(vib)   ...       0.01 
freq.    1178.19  E(vib)   ...       0.01 
freq.    1178.19  E(vib)   ...       0.01 
freq.    1187.45  E(vib)   ...       0.01 
freq.    1187.47  E(vib)   ...       0.01 
freq.    1188.20  E(vib)   ...       0.01 
freq.    1188.26  E(vib)   ...       0.01 
freq.    1258.92  E(vib)   ...       0.01 
freq.    1258.93  E(vib)   ...       0.01 
freq.    1261.68  E(vib)   ...       0.01 
freq.    1262.30  E(vib)   ...       0.01 
freq.    1283.84  E(vib)   ...       0.01 
freq.    1283.85  E(vib)   ...       0.01 
freq.    1291.27  E(vib)   ...       0.01 
freq.    1291.64  E(vib)   ...       0.01 
freq.    1294.19  E(vib)   ...       0.01 
freq.    1294.19  E(vib)   ...       0.01 
freq.    1297.11  E(vib)   ...       0.01 
freq.    1297.30  E(vib)   ...       0.01 
freq.    1319.69  E(vib)   ...       0.01 
freq.    1319.69  E(vib)   ...       0.01 
freq.    1320.98  E(vib)   ...       0.01 
freq.    1321.77  E(vib)   ...       0.01 
freq.    1328.55  E(vib)   ...       0.01 
freq.    1328.55  E(vib)   ...       0.01 
freq.    1336.54  E(vib)   ...       0.01 
freq.    1336.74  E(vib)   ...       0.01 
freq.    1337.35  E(vib)   ...       0.01 
freq.    1337.36  E(vib)   ...       0.01 
freq.    1371.29  E(vib)   ...       0.01 
freq.    1371.60  E(vib)   ...       0.01 
freq.    1434.09  E(vib)   ...       0.00 
freq.    1434.22  E(vib)   ...       0.00 
freq.    1439.55  E(vib)   ...       0.00 
freq.    1439.55  E(vib)   ...       0.00 
freq.    1467.29  E(vib)   ...       0.00 
freq.    1467.37  E(vib)   ...       0.00 
freq.    1477.61  E(vib)   ...       0.00 
freq.    1477.61  E(vib)   ...       0.00 
freq.    1479.78  E(vib)   ...       0.00 
freq.    1479.78  E(vib)   ...       0.00 
freq.    1483.42  E(vib)   ...       0.00 
freq.    1484.59  E(vib)   ...       0.00 
freq.    1505.56  E(vib)   ...       0.00 
freq.    1505.57  E(vib)   ...       0.00 
freq.    1506.35  E(vib)   ...       0.00 
freq.    1506.90  E(vib)   ...       0.00 
freq.    1514.12  E(vib)   ...       0.00 
freq.    1514.12  E(vib)   ...       0.00 
freq.    1516.13  E(vib)   ...       0.00 
freq.    1516.29  E(vib)   ...       0.00 
freq.    1555.62  E(vib)   ...       0.00 
freq.    1556.32  E(vib)   ...       0.00 
freq.    1586.89  E(vib)   ...       0.00 
freq.    1586.89  E(vib)   ...       0.00 
freq.    1611.71  E(vib)   ...       0.00 
freq.    1611.71  E(vib)   ...       0.00 
freq.    1612.95  E(vib)   ...       0.00 
freq.    1613.00  E(vib)   ...       0.00 
freq.    1613.71  E(vib)   ...       0.00 
freq.    1613.71  E(vib)   ...       0.00 
freq.    1613.85  E(vib)   ...       0.00 
freq.    1614.77  E(vib)   ...       0.00 
freq.    1625.45  E(vib)   ...       0.00 
freq.    1625.45  E(vib)   ...       0.00 
freq.    1625.59  E(vib)   ...       0.00 
freq.    1625.62  E(vib)   ...       0.00 
freq.    1641.05  E(vib)   ...       0.00 
freq.    1641.05  E(vib)   ...       0.00 
freq.    1643.18  E(vib)   ...       0.00 
freq.    1644.53  E(vib)   ...       0.00 
freq.    3168.12  E(vib)   ...       0.00 
freq.    3168.12  E(vib)   ...       0.00 
freq.    3168.15  E(vib)   ...       0.00 
freq.    3168.15  E(vib)   ...       0.00 
freq.    3193.04  E(vib)   ...       0.00 
freq.    3193.04  E(vib)   ...       0.00 
freq.    3193.05  E(vib)   ...       0.00 
freq.    3193.05  E(vib)   ...       0.00 
freq.    3197.27  E(vib)   ...       0.00 
freq.    3197.27  E(vib)   ...       0.00 
freq.    3197.38  E(vib)   ...       0.00 
freq.    3197.42  E(vib)   ...       0.00 
freq.    3202.32  E(vib)   ...       0.00 
freq.    3202.32  E(vib)   ...       0.00 
freq.    3202.36  E(vib)   ...       0.00 
freq.    3202.39  E(vib)   ...       0.00 
freq.    3207.96  E(vib)   ...       0.00 
freq.    3207.96  E(vib)   ...       0.00 
freq.    3207.98  E(vib)   ...       0.00 
freq.    3207.99  E(vib)   ...       0.00 
freq.    3217.41  E(vib)   ...       0.00 
freq.    3217.41  E(vib)   ...       0.00 
freq.    3217.46  E(vib)   ...       0.00 
freq.    3217.47  E(vib)   ...       0.00 
freq.    3218.67  E(vib)   ...       0.00 
freq.    3218.67  E(vib)   ...       0.00 
freq.    3218.68  E(vib)   ...       0.00 
freq.    3218.74  E(vib)   ...       0.00 
freq.    3246.20  E(vib)   ...       0.00 
freq.    3246.21  E(vib)   ...       0.00 
freq.    3246.23  E(vib)   ...       0.00 
freq.    3246.24  E(vib)   ...       0.00 

------------
INNER ENERGY
------------

The inner energy is: U= E(el) + E(ZPE) + E(vib) + E(rot) + E(trans)
    E(el)   - is the total energy from the electronic structure calculation
              = E(kin-el) + E(nuc-el) + E(el-el) + E(nuc-nuc)
    E(ZPE)  - the the zero temperature vibrational energy from the frequency calculation
    E(vib)  - the the finite temperature correction to E(ZPE) due to population
              of excited vibrational states
    E(rot)  - is the rotational thermal energy
    E(trans)- is the translational thermal energy

Summary of contributions to the inner energy U:
Electronic energy                ...  -4013.13334883 Eh
Zero point energy                ...      0.71111109 Eh     446.23 kcal/mol
Thermal vibrational correction   ...      0.04403041 Eh      27.63 kcal/mol
Thermal rotational correction    ...      0.00141627 Eh       0.89 kcal/mol
Thermal translational correction ...      0.00141627 Eh       0.89 kcal/mol
-----------------------------------------------------------------------
Total thermal energy                  -4012.37537479 Eh


Summary of corrections to the electronic energy:
(perhaps to be used in another calculation)
Total thermal correction                  0.04686295 Eh      29.41 kcal/mol
Non-thermal (ZPE) correction              0.71111109 Eh     446.23 kcal/mol
-----------------------------------------------------------------------
Total correction                          0.75797404 Eh     475.63 kcal/mol


--------
ENTHALPY
--------

The enthalpy is H = U + kB*T
                kB is Boltzmann's constant
Total free energy                 ...  -4012.37537479 Eh 
Thermal Enthalpy correction       ...      0.00094421 Eh       0.59 kcal/mol
-----------------------------------------------------------------------
Total Enthalpy                    ...  -4012.37443058 Eh


Note: Only C1 symmetry has been detected, increase convergence thresholds 
      if your molecule has a higher symmetry. Symmetry factor of 1.0 is   
      used for the rotational entropy correction. 
 

Note: Rotational entropy computed according to Herzberg 
Infrared and Raman Spectra, Chapter V,1, Van Nostrand Reinhold, 1945 
Point Group:  C1, Symmetry Number:   1  
Rotational constants in cm-1:     0.002029     0.001023     0.001023 

Vibrational entropy computed according to the QRRHO of S. Grimme
Chem.Eur.J. 2012 18 9955


-------
ENTROPY
-------

The entropy contributions are T*S = T*(S(el)+S(vib)+S(rot)+S(trans))
     S(el)   - electronic entropy
     S(vib)  - vibrational entropy
     S(rot)  - rotational entropy
     S(trans)- translational entropy
The entropies will be listed as multiplied by the temperature to get
units of energy

Electronic entropy                ...      0.00103729 Eh      0.65 kcal/mol
Vibrational entropy               ...      0.07940885 Eh     49.83 kcal/mol
Rotational entropy                ...      0.01893877 Eh     11.88 kcal/mol
Translational entropy             ...      0.02187790 Eh     13.73 kcal/mol
-----------------------------------------------------------------------
Final entropy term                ...      0.12126281 Eh     76.09 kcal/mol

In case the symmetry of your molecule has not been determined correctly
or in case you have a reason to use a different symmetry number we print 
out the resulting rotational entropy values for sn=1,12 :
 --------------------------------------------------------
|  sn= 1 | S(rot)=       0.01893877 Eh     11.88 kcal/mol|
|  sn= 2 | S(rot)=       0.01828431 Eh     11.47 kcal/mol|
|  sn= 3 | S(rot)=       0.01790148 Eh     11.23 kcal/mol|
|  sn= 4 | S(rot)=       0.01762985 Eh     11.06 kcal/mol|
|  sn= 5 | S(rot)=       0.01741917 Eh     10.93 kcal/mol|
|  sn= 6 | S(rot)=       0.01724702 Eh     10.82 kcal/mol|
|  sn= 7 | S(rot)=       0.01710148 Eh     10.73 kcal/mol|
|  sn= 8 | S(rot)=       0.01697540 Eh     10.65 kcal/mol|
|  sn= 9 | S(rot)=       0.01686419 Eh     10.58 kcal/mol|
|  sn=10 | S(rot)=       0.01676471 Eh     10.52 kcal/mol|
|  sn=11 | S(rot)=       0.01667472 Eh     10.46 kcal/mol|
|  sn=12 | S(rot)=       0.01659257 Eh     10.41 kcal/mol|
 --------------------------------------------------------


-------------------
GIBBS FREE ENERGY
-------------------

The Gibbs free energy is G = H - T*S

Total enthalpy                    ...  -4012.37443058 Eh 
Total entropy correction          ...     -0.12126281 Eh    -76.09 kcal/mol
-----------------------------------------------------------------------
Final Gibbs free energy         ...  -4012.49569339 Eh

For completeness - the Gibbs free energy minus the electronic energy
G-E(el)                           ...      0.63765544 Eh    400.13 kcal/mol

[1653699910.856089] [c312-011:870217:0]        rc_iface.c:506  UCX  WARN  using maximal value for RETRY_COUNT (7) instead of 40
[1653699910.856169] [c312-011:870216:0]        rc_iface.c:506  UCX  WARN  using maximal value for RETRY_COUNT (7) instead of 40
[1653699910.856369] [c312-011:870218:0]        rc_iface.c:506  UCX  WARN  using maximal value for RETRY_COUNT (7) instead of 40
[1653699910.856371] [c312-011:870219:0]        rc_iface.c:506  UCX  WARN  using maximal value for RETRY_COUNT (7) instead of 40
[1653699910.859014] [c312-011:870218:0]        rc_iface.c:506  UCX  WARN  using maximal value for RETRY_COUNT (7) instead of 40
[1653699910.859017] [c312-011:870217:0]        rc_iface.c:506  UCX  WARN  using maximal value for RETRY_COUNT (7) instead of 40
[1653699910.859166] [c312-011:870216:0]        rc_iface.c:506  UCX  WARN  using maximal value for RETRY_COUNT (7) instead of 40
[1653699910.859167] [c312-011:870219:0]        rc_iface.c:506  UCX  WARN  using maximal value for RETRY_COUNT (7) instead of 40

Timings for individual modules:

Sum of individual times         ...   115510.542 sec (=1925.176 min)
GTO integral calculation        ...       41.615 sec (=   0.694 min)   0.0 %
SCF iterations                  ...    30192.419 sec (= 503.207 min)  26.1 %
SCF Gradient evaluation         ...     5355.423 sec (=  89.257 min)   4.6 %
Geometry relaxation             ...        7.085 sec (=   0.118 min)   0.0 %
Analytical frequency calculation...    79914.000 sec (=1331.900 min)  69.2 %
                             ****ORCA TERMINATED NORMALLY****
TOTAL RUN TIME: 1 days 8 hours 5 minutes 44 seconds 692 msec
